 Entering Gaussian System, Link 0=/uufs/chpc.utah.edu/sys/installdir/gaussian16/B01/E6B/g16/g16
 Input=1_1.com
 Output=1_1.log
 Initial command:
 /uufs/chpc.utah.edu/sys/installdir/gaussian16/B01/E6B/g16/l1.exe "/scratch/general/lustre/u6029223/2065698/notchpeak.peaks/Gau-30121.inp" -scrdir="/scratch/general/lustre/u6029223/2065698/notchpeak.peaks/"
 Entering Link 1 = /uufs/chpc.utah.edu/sys/installdir/gaussian16/B01/E6B/g16/l1.exe PID=     30123.
  
 Copyright (c) 1988-2017, Gaussian, Inc.  All Rights Reserved.
  
 This is part of the Gaussian(R) 16 program.  It is based on
 the Gaussian(R) 09 system (copyright 2009, Gaussian, Inc.),
 the Gaussian(R) 03 system (copyright 2003, Gaussian, Inc.),
 the Gaussian(R) 98 system (copyright 1998, Gaussian, Inc.),
 the Gaussian(R) 94 system (copyright 1995, Gaussian, Inc.),
 the Gaussian 92(TM) system (copyright 1992, Gaussian, Inc.),
 the Gaussian 90(TM) system (copyright 1990, Gaussian, Inc.),
 the Gaussian 88(TM) system (copyright 1988, Gaussian, Inc.),
 the Gaussian 86(TM) system (copyright 1986, Carnegie Mellon
 University), and the Gaussian 82(TM) system (copyright 1983,
 Carnegie Mellon University). Gaussian is a federally registered
 trademark of Gaussian, Inc.
  
 This software contains proprietary and confidential information,
 including trade secrets, belonging to Gaussian, Inc.
  
 This software is provided under written license and may be
 used, copied, transmitted, or stored only in accord with that
 written license.
  
 The following legend is applicable only to US Government
 contracts under FAR:
  
                    RESTRICTED RIGHTS LEGEND
  
 Use, reproduction and disclosure by the US Government is
 subject to restrictions as set forth in subparagraphs (a)
 and (c) of the Commercial Computer Software - Restricted
 Rights clause in FAR 52.227-19.
  
 Gaussian, Inc.
 340 Quinnipiac St., Bldg. 40, Wallingford CT 06492
  
  
 ---------------------------------------------------------------
 Warning -- This program may not be used in any manner that
 competes with the business of Gaussian, Inc. or will provide
 assistance to any competitor of Gaussian, Inc.  The licensee
 of this program is prohibited from giving any competitor of
 Gaussian, Inc. access to this program.  By using this program,
 the user acknowledges that Gaussian, Inc. is engaged in the
 business of creating and licensing software in the field of
 computational chemistry and represents and warrants to the
 licensee that it is not a competitor of Gaussian, Inc. and that
 it will not use this program in any manner prohibited above.
 ---------------------------------------------------------------
  

 Cite this work as:
 Gaussian 16, Revision B.01,
 M. J. Frisch, G. W. Trucks, H. B. Schlegel, G. E. Scuseria, 
 M. A. Robb, J. R. Cheeseman, G. Scalmani, V. Barone, 
 G. A. Petersson, H. Nakatsuji, X. Li, M. Caricato, A. V. Marenich, 
 J. Bloino, B. G. Janesko, R. Gomperts, B. Mennucci, H. P. Hratchian, 
 J. V. Ortiz, A. F. Izmaylov, J. L. Sonnenberg, D. Williams-Young, 
 F. Ding, F. Lipparini, F. Egidi, J. Goings, B. Peng, A. Petrone, 
 T. Henderson, D. Ranasinghe, V. G. Zakrzewski, J. Gao, N. Rega, 
 G. Zheng, W. Liang, M. Hada, M. Ehara, K. Toyota, R. Fukuda, 
 J. Hasegawa, M. Ishida, T. Nakajima, Y. Honda, O. Kitao, H. Nakai, 
 T. Vreven, K. Throssell, J. A. Montgomery, Jr., J. E. Peralta, 
 F. Ogliaro, M. J. Bearpark, J. J. Heyd, E. N. Brothers, K. N. Kudin, 
 V. N. Staroverov, T. A. Keith, R. Kobayashi, J. Normand, 
 K. Raghavachari, A. P. Rendell, J. C. Burant, S. S. Iyengar, 
 J. Tomasi, M. Cossi, J. M. Millam, M. Klene, C. Adamo, R. Cammi, 
 J. W. Ochterski, R. L. Martin, K. Morokuma, O. Farkas, 
 J. B. Foresman, and D. J. Fox, Gaussian, Inc., Wallingford CT, 2016.
 
 ******************************************
 Gaussian 16:  ES64L-G16RevB.01 20-Dec-2017
                13-Feb-2021 
 ******************************************
 %NProcShared=40
 Will use up to   40 processors via shared memory.
 %mem=16GB
 %chk=1_1.chk
 ----------------------------------------------------------------------
 # B3LYP/6-31G(d,p) empiricaldispersion=GD3BJ int=(grid=fine) opt freq=
 noraman
 ----------------------------------------------------------------------
 1/18=20,19=15,26=3,38=1/1,3;
 2/9=110,12=2,17=6,18=5,40=1/2;
 3/5=1,6=6,7=101,11=2,25=1,30=1,71=1,74=-5,75=-4,124=41/1,2,3;
 4//1;
 5/5=2,38=5/2;
 6/7=2,8=2,9=2,10=2,28=1/1;
 7//1,2,3,16;
 1/18=20,19=15,26=3/3(2);
 2/9=110/2;
 99//99;
 2/9=110/2;
 3/5=1,6=6,7=101,11=2,25=1,30=1,71=1,74=-5,75=-4,124=41/1,2,3;
 4/5=5,16=3,69=1/1;
 5/5=2,38=5/2;
 7//1,2,3,16;
 1/18=20,19=15,26=3/3(-5);
 2/9=110/2;
 6/7=2,8=2,9=2,10=2,19=2,28=1/1;
 99/9=1/99;
 -------
 1_1.xyz
 -------
 Symbolic Z-matrix:
 Charge =  0 Multiplicity = 1
 Br                   -1.682    -1.6431   -0.0544 
 C                    -0.6497    0.0293    0.0897 
 C                     0.6899    0.0126    0.1487 
 H                     1.2341   -0.9206    0.1185 
 H                    -1.2607    0.9216    0.1145 
 H                     1.2616    0.9258    0.2277 
 

 GradGradGradGradGradGradGradGradGradGradGradGradGradGradGradGradGradGrad
 Berny optimization.
 Initialization pass.
                           ----------------------------
                           !    Initial Parameters    !
                           ! (Angstroms and Degrees)  !
 --------------------------                            --------------------------
 ! Name  Definition              Value          Derivative Info.                !
 --------------------------------------------------------------------------------
 ! R1    R(1,2)                  1.9706         estimate D2E/DX2                !
 ! R2    R(2,3)                  1.341          estimate D2E/DX2                !
 ! R3    R(2,5)                  1.0817         estimate D2E/DX2                !
 ! R4    R(3,4)                  1.0807         estimate D2E/DX2                !
 ! R5    R(3,6)                  1.0803         estimate D2E/DX2                !
 ! A1    A(1,2,3)              121.0608         estimate D2E/DX2                !
 ! A2    A(1,2,5)              113.9439         estimate D2E/DX2                !
 ! A3    A(3,2,5)              124.9954         estimate D2E/DX2                !
 ! A4    A(2,3,4)              120.8343         estimate D2E/DX2                !
 ! A5    A(2,3,6)              121.4228         estimate D2E/DX2                !
 ! A6    A(4,3,6)              117.743          estimate D2E/DX2                !
 ! D1    D(1,2,3,4)             -0.0032         estimate D2E/DX2                !
 ! D2    D(1,2,3,6)            179.9973         estimate D2E/DX2                !
 ! D3    D(5,2,3,4)           -179.9989         estimate D2E/DX2                !
 ! D4    D(5,2,3,6)              0.0017         estimate D2E/DX2                !
 --------------------------------------------------------------------------------
 Trust Radius=3.00D-01 FncErr=1.00D-07 GrdErr=1.00D-06 EigMax=2.50D+02 EigMin=1.00D-04
 Number of steps in this run=     25 maximum allowed number of steps=    100.
 GradGradGradGradGradGradGradGradGradGradGradGradGradGradGradGradGradGrad

                          Input orientation:                          
 ---------------------------------------------------------------------
 Center     Atomic      Atomic             Coordinates (Angstroms)
 Number     Number       Type             X           Y           Z
 ---------------------------------------------------------------------
      1         35           0       -1.682000   -1.643100   -0.054400
      2          6           0       -0.649700    0.029300    0.089700
      3          6           0        0.689900    0.012600    0.148700
      4          1           0        1.234100   -0.920600    0.118500
      5          1           0       -1.260700    0.921600    0.114500
      6          1           0        1.261600    0.925800    0.227700
 ---------------------------------------------------------------------
                    Distance matrix (angstroms):
                    1          2          3          4          5
     1  Br   0.000000
     2  C    1.970617   0.000000
     3  C    2.899742   1.341003   0.000000
     4  H    3.009242   2.109939   1.080707   0.000000
     5  H    2.604555   1.081728   2.152276   3.101249   0.000000
     6  H    3.917092   2.115614   1.080285   1.849831   2.524842
                    6
     6  H    0.000000
 Stoichiometry    C2H3Br
 Framework group  C1[X(C2H3Br)]
 Deg. of freedom    12
 Full point group                 C1      NOp   1
 Largest Abelian subgroup         C1      NOp   1
 Largest concise Abelian subgroup C1      NOp   1
                         Standard orientation:                         
 ---------------------------------------------------------------------
 Center     Atomic      Atomic             Coordinates (Angstroms)
 Number     Number       Type             X           Y           Z
 ---------------------------------------------------------------------
      1         35           0        0.743616   -0.044949    0.000001
      2          6           0       -1.133744    0.554089   -0.000017
      3          6           0       -2.142085   -0.329957    0.000004
      4          1           0       -1.946851   -1.392883   -0.000021
      5          1           0       -1.251448    1.629394    0.000023
      6          1           0       -3.173302   -0.008076    0.000037
 ---------------------------------------------------------------------
 Rotational constants (GHZ):          51.7256631           3.9453119           3.6657140
 Standard basis: 6-31G(d,p) (6D, 7F)
 There are    75 symmetry adapted cartesian basis functions of A   symmetry.
 There are    75 symmetry adapted basis functions of A   symmetry.
    75 basis functions,   160 primitive gaussians,    75 cartesian basis functions
    25 alpha electrons       25 beta electrons
       nuclear repulsion energy       140.8747902491 Hartrees.
 NAtoms=    6 NActive=    6 NUniq=    6 SFac= 1.00D+00 NAtFMM=   60 NAOKFM=F Big=F
 Integral buffers will be    131072 words long.
 Raffenetti 2 integral format.
 Two-electron integral symmetry is turned on.
 Nuclear repulsion after empirical dispersion term =      140.8677745570 Hartrees.
 One-electron integrals computed using PRISM.
 NBasis=    75 RedAO= T EigKep=  7.56D-04  NBF=    75
 NBsUse=    75 1.00D-06 EigRej= -1.00D+00 NBFU=    75
 ExpMin= 1.43D-01 ExpMax= 5.74D+05 ExpMxC= 5.74D+03 IAcc=2 IRadAn=         4 AccDes= 0.00D+00
 Harris functional with IExCor=  402 and IRadAn=       4 diagonalized for initial guess.
 HarFok:  IExCor=  402 AccDes= 0.00D+00 IRadAn=         4 IDoV= 1 UseB2=F ITyADJ=14
 ICtDFT=  3500011 ScaDFX=  1.000000  1.000000  1.000000  1.000000
 FoFCou: FMM=F IPFlag=           0 FMFlag=      100000 FMFlg1=           0
         NFxFlg=           0 DoJE=T BraDBF=F KetDBF=T FulRan=T
         wScrn=  0.000000 ICntrl=       500 IOpCl=  0 I1Cent=   200000004 NGrid=           0
         NMat0=    1 NMatS0=      1 NMatT0=    0 NMatD0=    1 NMtDS0=    0 NMtDT0=    0
 Petite list used in FoFCou.
 Keep R1 ints in memory in canonical form, NReq=39871133.
 Requested convergence on RMS density matrix=1.00D-08 within 128 cycles.
 Requested convergence on MAX density matrix=1.00D-06.
 Requested convergence on             energy=1.00D-06.
 No special actions if energy rises.
 Integral accuracy reduced to 1.0D-05 until final iterations.
 Initial convergence to 1.0D-05 achieved.  Increase integral accuracy.
 SCF Done:  E(RB3LYP) =  -2649.70272159     A.U. after   14 cycles
            NFock= 14  Conv=0.44D-08     -V/T= 2.0063

 **********************************************************************

            Population analysis using the SCF Density.

 **********************************************************************

 Orbital symmetries:
       Occupied  (A) (A) (A) (A) (A) (A) (A) (A) (A) (A) (A) (A)
                 (A) (A) (A) (A) (A) (A) (A) (A) (A) (A) (A) (A)
                 (A)
       Virtual   (A) (A) (A) (A) (A) (A) (A) (A) (A) (A) (A) (A)
                 (A) (A) (A) (A) (A) (A) (A) (A) (A) (A) (A) (A)
                 (A) (A) (A) (A) (A) (A) (A) (A) (A) (A) (A) (A)
                 (A) (A) (A) (A) (A) (A) (A) (A) (A) (A) (A) (A)
                 (A) (A)
 The electronic state is 1-A.
 Alpha  occ. eigenvalues -- -482.90812 -61.87055 -56.39154 -56.38775 -56.38765
 Alpha  occ. eigenvalues --  -10.25442 -10.20725  -8.58222  -6.53623  -6.52355
 Alpha  occ. eigenvalues --   -6.52314  -2.65185  -2.64836  -2.64805  -2.63794
 Alpha  occ. eigenvalues --   -2.63793  -0.81295  -0.73276  -0.58477  -0.48006
 Alpha  occ. eigenvalues --   -0.43751  -0.36704  -0.33182  -0.28479  -0.25641
 Alpha virt. eigenvalues --   -0.00882  -0.00704   0.11143   0.13394   0.21014
 Alpha virt. eigenvalues --    0.25723   0.31250   0.39660   0.46004   0.46217
 Alpha virt. eigenvalues --    0.47128   0.47261   0.49847   0.51195   0.52042
 Alpha virt. eigenvalues --    0.58440   0.65166   0.65758   0.74296   0.79105
 Alpha virt. eigenvalues --    0.83970   0.85394   0.88929   0.90702   1.08379
 Alpha virt. eigenvalues --    1.23600   1.35371   1.41721   1.55096   1.66144
 Alpha virt. eigenvalues --    1.85591   1.86135   1.95331   2.04308   2.08194
 Alpha virt. eigenvalues --    2.14640   2.37509   2.42626   2.53974   2.56703
 Alpha virt. eigenvalues --    2.63170   2.69307   2.93838   3.23376   3.38678
 Alpha virt. eigenvalues --    3.59355   4.13728   4.41686   8.59850  72.59160
          Condensed to atoms (all electrons):
               1          2          3          4          5          6
     1  Br  34.938201   0.277648  -0.057917  -0.004160  -0.043075   0.003885
     2  C    0.277648   4.840728   0.639149  -0.033086   0.382801  -0.026763
     3  C   -0.057917   0.639149   4.908480   0.386644  -0.044198   0.374039
     4  H   -0.004160  -0.033086   0.386644   0.550392   0.004610  -0.036673
     5  H   -0.043075   0.382801  -0.044198   0.004610   0.560183  -0.004612
     6  H    0.003885  -0.026763   0.374039  -0.036673  -0.004612   0.565432
 Mulliken charges:
               1
     1  Br  -0.114581
     2  C   -0.080477
     3  C   -0.206197
     4  H    0.132273
     5  H    0.144291
     6  H    0.124691
 Sum of Mulliken charges =  -0.00000
 Mulliken charges with hydrogens summed into heavy atoms:
               1
     1  Br  -0.114581
     2  C    0.063814
     3  C    0.050767
 Electronic spatial extent (au):  <R**2>=            340.5343
 Charge=              0.0000 electrons
 Dipole moment (field-independent basis, Debye):
    X=             -1.6153    Y=              0.3311    Z=              0.0000  Tot=              1.6489
 Quadrupole moment (field-independent basis, Debye-Ang):
   XX=            -26.2563   YY=            -28.5595   ZZ=            -32.4813
   XY=             -0.7373   XZ=             -0.0001   YZ=              0.0001
 Traceless Quadrupole moment (field-independent basis, Debye-Ang):
   XX=              2.8427   YY=              0.5395   ZZ=             -3.3822
   XY=             -0.7373   XZ=             -0.0001   YZ=              0.0001
 Octapole moment (field-independent basis, Debye-Ang**2):
  XXX=             15.6515  YYY=              0.1271  ZZZ=              0.0001  XYY=              4.3386
  XXY=             -1.6998  XXZ=              0.0004  XZZ=              9.9591  YZZ=             -0.5463
  YYZ=              0.0001  XYZ=             -0.0001
 Hexadecapole moment (field-independent basis, Debye-Ang**3):
 XXXX=           -292.8213 YYYY=            -57.1823 ZZZZ=            -35.4117 XXXY=             -3.6492
 XXXZ=             -0.0010 YYYX=             -2.5398 YYYZ=              0.0002 ZZZX=             -0.0001
 ZZZY=              0.0000 XXYY=            -62.7362 XXZZ=            -67.2995 YYZZ=            -17.1446
 XXYZ=              0.0002 YYXZ=             -0.0000 ZZXY=             -0.4941
 N-N= 1.408677745570D+02 E-N=-6.595823113008D+03  KE= 2.633155874387D+03
 Calling FoFJK, ICntrl=      2127 FMM=F ISym2X=0 I1Cent= 0 IOpClX= 0 NMat=1 NMatS=1 NMatT=0.
 ***** Axes restored to original set *****
 -------------------------------------------------------------------
 Center     Atomic                   Forces (Hartrees/Bohr)
 Number     Number              X              Y              Z
 -------------------------------------------------------------------
      1       35           0.009365348    0.018228111    0.001487416
      2        6           0.013731359   -0.013062000   -0.000153775
      3        6          -0.021940297   -0.006094030   -0.001337389
      4        1           0.002188291   -0.001720239   -0.000003192
      5        1          -0.003107358   -0.001825569   -0.000244847
      6        1          -0.000237343    0.004473727    0.000251786
 -------------------------------------------------------------------
 Cartesian Forces:  Max     0.021940297 RMS     0.008636513

 GradGradGradGradGradGradGradGradGradGradGradGradGradGradGradGradGradGrad
 Berny optimization.
 FormGI is forming the generalized inverse of G from B-inverse, IUseBI=4.
 Internal  Forces:  Max     0.020476231 RMS     0.007740207
 Search for a local minimum.
 Step number   1 out of a maximum of   25
 All quantities printed in internal units (Hartrees-Bohrs-Radians)
 Mixed Optimization -- RFO/linear search
 Second derivative matrix not updated -- first step.
 The second derivative matrix:
                          R1        R2        R3        R4        R5
           R1           0.15194
           R2           0.00000   0.56981
           R3           0.00000   0.00000   0.35786
           R4           0.00000   0.00000   0.00000   0.35909
           R5           0.00000   0.00000   0.00000   0.00000   0.35960
           A1           0.00000   0.00000   0.00000   0.00000   0.00000
           A2           0.00000   0.00000   0.00000   0.00000   0.00000
           A3           0.00000   0.00000   0.00000   0.00000   0.00000
           A4           0.00000   0.00000   0.00000   0.00000   0.00000
           A5           0.00000   0.00000   0.00000   0.00000   0.00000
           A6           0.00000   0.00000   0.00000   0.00000   0.00000
           D1           0.00000   0.00000   0.00000   0.00000   0.00000
           D2           0.00000   0.00000   0.00000   0.00000   0.00000
           D3           0.00000   0.00000   0.00000   0.00000   0.00000
           D4           0.00000   0.00000   0.00000   0.00000   0.00000
                          A1        A2        A3        A4        A5
           A1           0.25000
           A2           0.00000   0.16000
           A3           0.00000   0.00000   0.16000
           A4           0.00000   0.00000   0.00000   0.16000
           A5           0.00000   0.00000   0.00000   0.00000   0.16000
           A6           0.00000   0.00000   0.00000   0.00000   0.00000
           D1           0.00000   0.00000   0.00000   0.00000   0.00000
           D2           0.00000   0.00000   0.00000   0.00000   0.00000
           D3           0.00000   0.00000   0.00000   0.00000   0.00000
           D4           0.00000   0.00000   0.00000   0.00000   0.00000
                          A6        D1        D2        D3        D4
           A6           0.16000
           D1           0.00000   0.02869
           D2           0.00000   0.00000   0.02869
           D3           0.00000   0.00000   0.00000   0.02869
           D4           0.00000   0.00000   0.00000   0.00000   0.02869
 ITU=  0
     Eigenvalues ---    0.02869   0.02869   0.02869   0.15194   0.16000
     Eigenvalues ---    0.16000   0.16000   0.22000   0.35786   0.35909
     Eigenvalues ---    0.35960   0.56981
 RFO step:  Lambda=-3.80445162D-03 EMin= 2.86917793D-02
 Linear search not attempted -- first point.
 Iteration  1 RMS(Cart)=  0.03818942 RMS(Int)=  0.00021149
 Iteration  2 RMS(Cart)=  0.00027507 RMS(Int)=  0.00000002
 Iteration  3 RMS(Cart)=  0.00000003 RMS(Int)=  0.00000000
 Variable       Old X    -DE/DX   Delta X   Delta X   Delta X     New X
                                 (Linear)    (Quad)   (Total)
    R1        3.72393  -0.02048   0.00000  -0.13147  -0.13147   3.59245
    R2        2.53413  -0.01998   0.00000  -0.03483  -0.03483   2.49930
    R3        2.04417   0.00024   0.00000   0.00066   0.00066   2.04483
    R4        2.04224   0.00258   0.00000   0.00710   0.00710   2.04934
    R5        2.04144   0.00368   0.00000   0.01013   0.01013   2.05158
    A1        2.11291   0.00144   0.00000   0.00642   0.00642   2.11933
    A2        1.98870  -0.00442   0.00000  -0.02584  -0.02584   1.96286
    A3        2.18158   0.00299   0.00000   0.01941   0.01941   2.20099
    A4        2.10896   0.00319   0.00000   0.01948   0.01948   2.12844
    A5        2.11923  -0.00425   0.00000  -0.02593  -0.02593   2.09330
    A6        2.05500   0.00106   0.00000   0.00645   0.00645   2.06145
    D1       -0.00006   0.00000   0.00000   0.00006   0.00006   0.00001
    D2        3.14155   0.00000   0.00000   0.00007   0.00007  -3.14157
    D3       -3.14157  -0.00000   0.00000  -0.00003  -0.00003   3.14158
    D4        0.00003  -0.00000   0.00000  -0.00003  -0.00003   0.00000
         Item               Value     Threshold  Converged?
 Maximum Force            0.020476     0.000450     NO 
 RMS     Force            0.007740     0.000300     NO 
 Maximum Displacement     0.108679     0.001800     NO 
 RMS     Displacement     0.038236     0.001200     NO 
 Predicted change in Energy=-1.941851D-03
 GradGradGradGradGradGradGradGradGradGradGradGradGradGradGradGradGradGrad

                          Input orientation:                          
 ---------------------------------------------------------------------
 Center     Atomic      Atomic             Coordinates (Angstroms)
 Number     Number       Type             X           Y           Z
 ---------------------------------------------------------------------
      1         35           0       -1.653146   -1.585589   -0.049721
      2          6           0       -0.641295    0.017777    0.089370
      3          6           0        0.679836   -0.003314    0.147313
      4          1           0        1.240814   -0.930957    0.118183
      5          1           0       -1.266605    0.900566    0.113005
      6          1           0        1.233596    0.927117    0.226551
 ---------------------------------------------------------------------
                    Distance matrix (angstroms):
                    1          2          3          4          5
     1  Br   0.000000
     2  C    1.901045   0.000000
     3  C    2.825814   1.322570   0.000000
     4  H    2.971824   2.107904   1.084465   0.000000
     5  H    2.521282   1.082076   2.146349   3.105101   0.000000
     6  H    3.837096   2.088286   1.085648   1.861245   2.502920
                    6
     6  H    0.000000
 Stoichiometry    C2H3Br
 Framework group  C1[X(C2H3Br)]
 Deg. of freedom    12
 Full point group                 C1      NOp   1
 Largest Abelian subgroup         C1      NOp   1
 Largest concise Abelian subgroup C1      NOp   1
                         Standard orientation:                         
 ---------------------------------------------------------------------
 Center     Atomic      Atomic             Coordinates (Angstroms)
 Number     Number       Type             X           Y           Z
 ---------------------------------------------------------------------
      1         35           0        0.722074   -0.045470   -0.000000
      2          6           0       -1.086343    0.540702    0.000004
      3          6           0       -2.090353   -0.320202    0.000001
      4          1           0       -1.927038   -1.392299    0.000002
      5          1           0       -1.171323    1.619436   -0.000006
      6          1           0       -3.114040    0.041318   -0.000016
 ---------------------------------------------------------------------
 Rotational constants (GHZ):          53.2575653           4.1715281           3.8685171
 Standard basis: 6-31G(d,p) (6D, 7F)
 There are    75 symmetry adapted cartesian basis functions of A   symmetry.
 There are    75 symmetry adapted basis functions of A   symmetry.
    75 basis functions,   160 primitive gaussians,    75 cartesian basis functions
    25 alpha electrons       25 beta electrons
       nuclear repulsion energy       144.5494690936 Hartrees.
 NAtoms=    6 NActive=    6 NUniq=    6 SFac= 1.00D+00 NAtFMM=   60 NAOKFM=F Big=F
 Integral buffers will be    131072 words long.
 Raffenetti 2 integral format.
 Two-electron integral symmetry is turned on.
 Nuclear repulsion after empirical dispersion term =      144.5423775793 Hartrees.
 One-electron integrals computed using PRISM.
 NBasis=    75 RedAO= T EigKep=  7.55D-04  NBF=    75
 NBsUse=    75 1.00D-06 EigRej= -1.00D+00 NBFU=    75
 Initial guess from the checkpoint file:  "1_1.chk"
 B after Tr=    -0.000000    0.000000    0.000000
         Rot=    0.999997    0.000000    0.000000    0.002558 Ang=   0.29 deg.
 ExpMin= 1.43D-01 ExpMax= 5.74D+05 ExpMxC= 5.74D+03 IAcc=2 IRadAn=         4 AccDes= 0.00D+00
 Harris functional with IExCor=  402 and IRadAn=       4 diagonalized for initial guess.
 HarFok:  IExCor=  402 AccDes= 0.00D+00 IRadAn=         4 IDoV= 1 UseB2=F ITyADJ=14
 ICtDFT=  3500011 ScaDFX=  1.000000  1.000000  1.000000  1.000000
 FoFCou: FMM=F IPFlag=           0 FMFlag=      100000 FMFlg1=           0
         NFxFlg=           0 DoJE=T BraDBF=F KetDBF=T FulRan=T
         wScrn=  0.000000 ICntrl=       500 IOpCl=  0 I1Cent=   200000004 NGrid=           0
         NMat0=    1 NMatS0=      1 NMatT0=    0 NMatD0=    1 NMtDS0=    0 NMtDT0=    0
 Petite list used in FoFCou.
 Keep R1 ints in memory in canonical form, NReq=39871133.
 Requested convergence on RMS density matrix=1.00D-08 within 128 cycles.
 Requested convergence on MAX density matrix=1.00D-06.
 Requested convergence on             energy=1.00D-06.
 No special actions if energy rises.
 Integral accuracy reduced to 1.0D-05 until final iterations.
 Initial convergence to 1.0D-05 achieved.  Increase integral accuracy.
 SCF Done:  E(RB3LYP) =  -2649.70440428     A.U. after   12 cycles
            NFock= 12  Conv=0.31D-08     -V/T= 2.0062
 Calling FoFJK, ICntrl=      2127 FMM=F ISym2X=0 I1Cent= 0 IOpClX= 0 NMat=1 NMatS=1 NMatT=0.
 ***** Axes restored to original set *****
 -------------------------------------------------------------------
 Center     Atomic                   Forces (Hartrees/Bohr)
 Number     Number              X              Y              Z
 -------------------------------------------------------------------
      1       35          -0.003170338   -0.002188322   -0.000270414
      2        6          -0.002246137   -0.001619607   -0.000194458
      3        6           0.003790409    0.002058317    0.000290806
      4        1           0.000244680    0.000619101    0.000046991
      5        1           0.001079591    0.000963651    0.000104404
      6        1           0.000301795    0.000166859    0.000022671
 -------------------------------------------------------------------
 Cartesian Forces:  Max     0.003790409 RMS     0.001563068

 GradGradGradGradGradGradGradGradGradGradGradGradGradGradGradGradGradGrad
 Berny optimization.
 Using GEDIIS/GDIIS optimizer.
 FormGI is forming the generalized inverse of G from B-inverse, IUseBI=4.
 Internal  Forces:  Max     0.004519847 RMS     0.002113021
 Search for a local minimum.
 Step number   2 out of a maximum of   25
 All quantities printed in internal units (Hartrees-Bohrs-Radians)
 Mixed Optimization -- RFO/linear search
 Update second derivatives using D2CorX and points    1    2
 DE= -1.68D-03 DEPred=-1.94D-03 R= 8.67D-01
 TightC=F SS=  1.41D+00  RLast= 1.44D-01 DXNew= 5.0454D-01 4.3299D-01
 Trust test= 8.67D-01 RLast= 1.44D-01 DXMaxT set to 4.33D-01
 The second derivative matrix:
                          R1        R2        R3        R4        R5
           R1           0.17524
           R2           0.02529   0.59710
           R3           0.00083   0.00082   0.35785
           R4          -0.00256  -0.00281  -0.00011   0.35936
           R5           0.00123   0.00092  -0.00017  -0.00022   0.35861
           A1           0.02533   0.02545  -0.00016  -0.00318  -0.00392
           A2          -0.00255  -0.00221   0.00020   0.00039   0.00129
           A3          -0.01969  -0.02016  -0.00008   0.00240   0.00207
           A4           0.00292   0.00268  -0.00015  -0.00042  -0.00111
           A5          -0.00012   0.00025   0.00019   0.00009   0.00095
           A6          -0.00280  -0.00292  -0.00004   0.00033   0.00016
           D1          -0.00000  -0.00000  -0.00000   0.00000   0.00000
           D2          -0.00001  -0.00001  -0.00000   0.00000   0.00000
           D3           0.00000   0.00000   0.00000  -0.00000  -0.00000
           D4           0.00000   0.00000   0.00000  -0.00000   0.00000
                          A1        A2        A3        A4        A5
           A1           0.25145
           A2           0.00430   0.15836
           A3          -0.00600  -0.00202   0.16754
           A4          -0.00311   0.00138   0.00125   0.15885
           A5           0.00463  -0.00127  -0.00271   0.00113   0.15913
           A6          -0.00151  -0.00011   0.00146   0.00002  -0.00027
           D1          -0.00000   0.00000   0.00000  -0.00000  -0.00000
           D2          -0.00000  -0.00000   0.00000   0.00000  -0.00000
           D3           0.00000   0.00000  -0.00000  -0.00000   0.00000
           D4           0.00000  -0.00000  -0.00000   0.00000  -0.00000
                          A6        D1        D2        D3        D4
           A6           0.16025
           D1           0.00000   0.02869
           D2           0.00000   0.00000   0.02869
           D3          -0.00000  -0.00000  -0.00000   0.02869
           D4          -0.00000  -0.00000  -0.00000   0.00000   0.02869
 ITU=  1  0
 Use linear search instead of GDIIS.
     Eigenvalues ---    0.02869   0.02869   0.02869   0.15193   0.15910
     Eigenvalues ---    0.16000   0.16985   0.23499   0.35781   0.35879
     Eigenvalues ---    0.35949   0.60181
 RFO step:  Lambda=-1.38519347D-04 EMin= 2.86917792D-02
 Quartic linear search produced a step of -0.12701.
 Iteration  1 RMS(Cart)=  0.01483573 RMS(Int)=  0.00007925
 Iteration  2 RMS(Cart)=  0.00009279 RMS(Int)=  0.00000000
 Iteration  3 RMS(Cart)=  0.00000000 RMS(Int)=  0.00000000
 Variable       Old X    -DE/DX   Delta X   Delta X   Delta X     New X
                                 (Linear)    (Quad)   (Total)
    R1        3.59245   0.00356   0.01670  -0.00397   0.01273   3.60519
    R2        2.49930   0.00430   0.00442   0.00070   0.00513   2.50442
    R3        2.04483   0.00016  -0.00008   0.00050   0.00042   2.04524
    R4        2.04934  -0.00041  -0.00090   0.00022  -0.00068   2.04866
    R5        2.05158   0.00031  -0.00129   0.00249   0.00120   2.05278
    A1        2.11933   0.00452  -0.00082   0.01907   0.01825   2.13759
    A2        1.96286  -0.00081   0.00328  -0.00580  -0.00251   1.96035
    A3        2.20099  -0.00371  -0.00247  -0.01327  -0.01574   2.18525
    A4        2.12844   0.00065  -0.00247   0.00713   0.00466   2.13309
    A5        2.09330  -0.00017   0.00329  -0.00570  -0.00241   2.09089
    A6        2.06145  -0.00048  -0.00082  -0.00143  -0.00225   2.05920
    D1        0.00001  -0.00000  -0.00001   0.00001   0.00000   0.00001
    D2       -3.14157  -0.00000  -0.00001  -0.00001  -0.00002  -3.14159
    D3        3.14158   0.00000   0.00000   0.00001   0.00001  -3.14159
    D4        0.00000  -0.00000   0.00000  -0.00001  -0.00001  -0.00000
         Item               Value     Threshold  Converged?
 Maximum Force            0.004520     0.000450     NO 
 RMS     Force            0.002113     0.000300     NO 
 Maximum Displacement     0.041581     0.001800     NO 
 RMS     Displacement     0.014873     0.001200     NO 
 Predicted change in Energy=-1.105814D-04
 GradGradGradGradGradGradGradGradGradGradGradGradGradGradGradGradGradGrad

                          Input orientation:                          
 ---------------------------------------------------------------------
 Center     Atomic      Atomic             Coordinates (Angstroms)
 Number     Number       Type             X           Y           Z
 ---------------------------------------------------------------------
      1         35           0       -1.675149   -1.587319   -0.050812
      2          6           0       -0.640625    0.009511    0.088922
      3          6           0        0.683302   -0.003191    0.147481
      4          1           0        1.254278   -0.924312    0.119175
      5          1           0       -1.257775    0.898273    0.113266
      6          1           0        1.229169    0.932638    0.226668
 ---------------------------------------------------------------------
                    Distance matrix (angstroms):
                    1          2          3          4          5
     1  Br   0.000000
     2  C    1.907782   0.000000
     3  C    2.847995   1.325282   0.000000
     4  H    3.008325   2.112723   1.084103   0.000000
     5  H    2.525726   1.082297   2.140465   3.103589   0.000000
     6  H    3.855158   2.089801   1.086286   1.860228   2.489766
                    6
     6  H    0.000000
 Stoichiometry    C2H3Br
 Framework group  C1[X(C2H3Br)]
 Deg. of freedom    12
 Full point group                 C1      NOp   1
 Largest Abelian subgroup         C1      NOp   1
 Largest concise Abelian subgroup C1      NOp   1
                         Standard orientation:                         
 ---------------------------------------------------------------------
 Center     Atomic      Atomic             Coordinates (Angstroms)
 Number     Number       Type             X           Y           Z
 ---------------------------------------------------------------------
      1         35           0        0.727369   -0.045237   -0.000000
      2          6           0       -1.090591    0.533253    0.000001
      3          6           0       -2.107689   -0.316386   -0.000001
      4          1           0       -1.963248   -1.390823    0.000003
      5          1           0       -1.178672    1.611960   -0.000001
      6          1           0       -3.126326    0.060967   -0.000001
 ---------------------------------------------------------------------
 Rotational constants (GHZ):          54.1305078           4.1103978           3.8203032
 Standard basis: 6-31G(d,p) (6D, 7F)
 There are    75 symmetry adapted cartesian basis functions of A   symmetry.
 There are    75 symmetry adapted basis functions of A   symmetry.
    75 basis functions,   160 primitive gaussians,    75 cartesian basis functions
    25 alpha electrons       25 beta electrons
       nuclear repulsion energy       143.8956527746 Hartrees.
 NAtoms=    6 NActive=    6 NUniq=    6 SFac= 1.00D+00 NAtFMM=   60 NAOKFM=F Big=F
 Integral buffers will be    131072 words long.
 Raffenetti 2 integral format.
 Two-electron integral symmetry is turned on.
 Nuclear repulsion after empirical dispersion term =      143.8885836917 Hartrees.
 One-electron integrals computed using PRISM.
 NBasis=    75 RedAO= T EigKep=  7.56D-04  NBF=    75
 NBsUse=    75 1.00D-06 EigRej= -1.00D+00 NBFU=    75
 Initial guess from the checkpoint file:  "1_1.chk"
 B after Tr=     0.000000    0.000000   -0.000000
         Rot=    1.000000   -0.000000    0.000000    0.000663 Ang=  -0.08 deg.
 ExpMin= 1.43D-01 ExpMax= 5.74D+05 ExpMxC= 5.74D+03 IAcc=2 IRadAn=         4 AccDes= 0.00D+00
 Harris functional with IExCor=  402 and IRadAn=       4 diagonalized for initial guess.
 HarFok:  IExCor=  402 AccDes= 0.00D+00 IRadAn=         4 IDoV= 1 UseB2=F ITyADJ=14
 ICtDFT=  3500011 ScaDFX=  1.000000  1.000000  1.000000  1.000000
 FoFCou: FMM=F IPFlag=           0 FMFlag=      100000 FMFlg1=           0
         NFxFlg=           0 DoJE=T BraDBF=F KetDBF=T FulRan=T
         wScrn=  0.000000 ICntrl=       500 IOpCl=  0 I1Cent=   200000004 NGrid=           0
         NMat0=    1 NMatS0=      1 NMatT0=    0 NMatD0=    1 NMtDS0=    0 NMtDT0=    0
 Petite list used in FoFCou.
 Keep R1 ints in memory in canonical form, NReq=39871133.
 Requested convergence on RMS density matrix=1.00D-08 within 128 cycles.
 Requested convergence on MAX density matrix=1.00D-06.
 Requested convergence on             energy=1.00D-06.
 No special actions if energy rises.
 Integral accuracy reduced to 1.0D-05 until final iterations.
 Initial convergence to 1.0D-05 achieved.  Increase integral accuracy.
 SCF Done:  E(RB3LYP) =  -2649.70452851     A.U. after   11 cycles
            NFock= 11  Conv=0.31D-08     -V/T= 2.0062
 Calling FoFJK, ICntrl=      2127 FMM=F ISym2X=0 I1Cent= 0 IOpClX= 0 NMat=1 NMatS=1 NMatT=0.
 ***** Axes restored to original set *****
 -------------------------------------------------------------------
 Center     Atomic                   Forces (Hartrees/Bohr)
 Number     Number              X              Y              Z
 -------------------------------------------------------------------
      1       35          -0.000227351    0.000215676    0.000002326
      2        6          -0.000455750   -0.001180171   -0.000089115
      3        6           0.000345910    0.000519852    0.000045507
      4        1           0.000153343    0.000164711    0.000016680
      5        1           0.000345150    0.000441421    0.000041244
      6        1          -0.000161303   -0.000161488   -0.000016642
 -------------------------------------------------------------------
 Cartesian Forces:  Max     0.001180171 RMS     0.000373988

 GradGradGradGradGradGradGradGradGradGradGradGradGradGradGradGradGradGrad
 Berny optimization.
 Using GEDIIS/GDIIS optimizer.
 FormGI is forming the generalized inverse of G from B-inverse, IUseBI=4.
 Internal  Forces:  Max     0.001042899 RMS     0.000412776
 Search for a local minimum.
 Step number   3 out of a maximum of   25
 All quantities printed in internal units (Hartrees-Bohrs-Radians)
 Mixed Optimization -- En-DIIS/RFO-DIIS
 Update second derivatives using D2CorX and points    1    2    3
 DE= -1.24D-04 DEPred=-1.11D-04 R= 1.12D+00
 TightC=F SS=  1.41D+00  RLast= 2.85D-02 DXNew= 7.2819D-01 8.5397D-02
 Trust test= 1.12D+00 RLast= 2.85D-02 DXMaxT set to 4.33D-01
 The second derivative matrix:
                          R1        R2        R3        R4        R5
           R1           0.19472
           R2           0.03912   0.60033
           R3          -0.00097  -0.00193   0.35769
           R4          -0.00331  -0.00259   0.00013   0.35931
           R5           0.00649   0.00517  -0.00056  -0.00043   0.36031
           A1           0.02493   0.00523  -0.00459  -0.00081  -0.00185
           A2          -0.01294  -0.01244   0.00055   0.00105  -0.00176
           A3          -0.02765  -0.01822   0.00237   0.00179  -0.00107
           A4          -0.00004  -0.00396  -0.00089   0.00023  -0.00143
           A5           0.00353   0.00609   0.00058  -0.00044   0.00157
           A6          -0.00349  -0.00213   0.00031   0.00021  -0.00015
           D1          -0.00000  -0.00000  -0.00000   0.00000   0.00000
           D2          -0.00001  -0.00001   0.00000   0.00000  -0.00000
           D3           0.00001   0.00001  -0.00000  -0.00000   0.00000
           D4          -0.00000  -0.00000   0.00000   0.00000  -0.00000
                          A1        A2        A3        A4        A5
           A1           0.19242
           A2          -0.00502   0.16333
           A3           0.01636   0.00608   0.16253
           A4          -0.01650   0.00081   0.00752   0.15624
           A5           0.01419  -0.00165  -0.00782   0.00277   0.15824
           A6           0.00231   0.00084   0.00030   0.00099  -0.00102
           D1          -0.00000  -0.00000   0.00000   0.00000  -0.00000
           D2          -0.00000   0.00000   0.00001   0.00000  -0.00000
           D3           0.00000  -0.00000  -0.00000  -0.00000   0.00000
           D4           0.00000   0.00000   0.00000   0.00000  -0.00000
                          A6        D1        D2        D3        D4
           A6           0.16003
           D1           0.00000   0.02869
           D2           0.00000   0.00000   0.02869
           D3          -0.00000  -0.00000  -0.00000   0.02869
           D4          -0.00000  -0.00000   0.00000  -0.00000   0.02869
 ITU=  1  1  0
 Use linear search instead of GDIIS.
     Eigenvalues ---    0.02869   0.02869   0.02869   0.12412   0.15959
     Eigenvalues ---    0.16003   0.17108   0.22290   0.35771   0.35918
     Eigenvalues ---    0.36071   0.60544
 RFO step:  Lambda=-1.01350720D-05 EMin= 2.86917793D-02
 Quartic linear search produced a step of  0.24817.
 Iteration  1 RMS(Cart)=  0.00651549 RMS(Int)=  0.00002017
 Iteration  2 RMS(Cart)=  0.00002141 RMS(Int)=  0.00000000
 Iteration  3 RMS(Cart)=  0.00000000 RMS(Int)=  0.00000000
 Variable       Old X    -DE/DX   Delta X   Delta X   Delta X     New X
                                 (Linear)    (Quad)   (Total)
    R1        3.60519  -0.00005   0.00316  -0.00515  -0.00199   3.60319
    R2        2.50442   0.00033   0.00127  -0.00079   0.00049   2.50491
    R3        2.04524   0.00016   0.00010   0.00052   0.00062   2.04587
    R4        2.04866  -0.00007  -0.00017   0.00000  -0.00017   2.04849
    R5        2.05278  -0.00021   0.00030  -0.00080  -0.00050   2.05229
    A1        2.13759   0.00103   0.00453   0.00313   0.00766   2.14524
    A2        1.96035   0.00002  -0.00062   0.00120   0.00057   1.96092
    A3        2.18525  -0.00104  -0.00391  -0.00433  -0.00823   2.17702
    A4        2.13309   0.00037   0.00116   0.00271   0.00386   2.13696
    A5        2.09089  -0.00027  -0.00060  -0.00232  -0.00292   2.08797
    A6        2.05920  -0.00011  -0.00056  -0.00038  -0.00094   2.05826
    D1        0.00001  -0.00000   0.00000  -0.00001  -0.00001  -0.00000
    D2       -3.14159  -0.00000  -0.00000  -0.00000  -0.00001   3.14159
    D3       -3.14159  -0.00000   0.00000  -0.00000  -0.00000  -3.14159
    D4       -0.00000   0.00000  -0.00000   0.00000   0.00000  -0.00000
         Item               Value     Threshold  Converged?
 Maximum Force            0.001043     0.000450     NO 
 RMS     Force            0.000413     0.000300     NO 
 Maximum Displacement     0.013816     0.001800     NO 
 RMS     Displacement     0.006513     0.001200     NO 
 Predicted change in Energy=-8.763359D-06
 GradGradGradGradGradGradGradGradGradGradGradGradGradGradGradGradGradGrad

                          Input orientation:                          
 ---------------------------------------------------------------------
 Center     Atomic      Atomic             Coordinates (Angstroms)
 Number     Number       Type             X           Y           Z
 ---------------------------------------------------------------------
      1         35           0       -1.682461   -1.585604   -0.051042
      2          6           0       -0.640410    0.005062    0.088674
      3          6           0        0.683794   -0.004217    0.147443
      4          1           0        1.260647   -0.921580    0.119622
      5          1           0       -1.252725    0.897550    0.113450
      6          1           0        1.224354    0.934389    0.226552
 ---------------------------------------------------------------------
                    Distance matrix (angstroms):
                    1          2          3          4          5
     1  Br   0.000000
     2  C    1.906727   0.000000
     3  C    2.852953   1.325540   0.000000
     4  H    3.021910   2.115098   1.084014   0.000000
     5  H    2.525428   1.082626   2.136457   3.102630   0.000000
     6  H    3.857071   2.088063   1.086023   1.859401   2.479934
                    6
     6  H    0.000000
 Stoichiometry    C2H3Br
 Framework group  C1[X(C2H3Br)]
 Deg. of freedom    12
 Full point group                 C1      NOp   1
 Largest Abelian subgroup         C1      NOp   1
 Largest concise Abelian subgroup C1      NOp   1
                         Standard orientation:                         
 ---------------------------------------------------------------------
 Center     Atomic      Atomic             Coordinates (Angstroms)
 Number     Number       Type             X           Y           Z
 ---------------------------------------------------------------------
      1         35           0        0.728401   -0.045126    0.000000
      2          6           0       -1.089685    0.529480   -0.000001
      3          6           0       -2.111806   -0.314514   -0.000000
      4          1           0       -1.977653   -1.390195   -0.000000
      5          1           0       -1.180528    1.608288    0.000001
      6          1           0       -3.126906    0.071512    0.000003
 ---------------------------------------------------------------------
 Rotational constants (GHZ):          54.5700500           4.0983289           3.8120367
 Standard basis: 6-31G(d,p) (6D, 7F)
 There are    75 symmetry adapted cartesian basis functions of A   symmetry.
 There are    75 symmetry adapted basis functions of A   symmetry.
    75 basis functions,   160 primitive gaussians,    75 cartesian basis functions
    25 alpha electrons       25 beta electrons
       nuclear repulsion energy       143.8315168386 Hartrees.
 NAtoms=    6 NActive=    6 NUniq=    6 SFac= 1.00D+00 NAtFMM=   60 NAOKFM=F Big=F
 Integral buffers will be    131072 words long.
 Raffenetti 2 integral format.
 Two-electron integral symmetry is turned on.
 Nuclear repulsion after empirical dispersion term =      143.8244531979 Hartrees.
 One-electron integrals computed using PRISM.
 NBasis=    75 RedAO= T EigKep=  7.56D-04  NBF=    75
 NBsUse=    75 1.00D-06 EigRej= -1.00D+00 NBFU=    75
 Initial guess from the checkpoint file:  "1_1.chk"
 B after Tr=    -0.000000   -0.000000    0.000000
         Rot=    1.000000   -0.000000    0.000000    0.000351 Ang=   0.04 deg.
 Keep R1 ints in memory in canonical form, NReq=39871133.
 Requested convergence on RMS density matrix=1.00D-08 within 128 cycles.
 Requested convergence on MAX density matrix=1.00D-06.
 Requested convergence on             energy=1.00D-06.
 No special actions if energy rises.
 SCF Done:  E(RB3LYP) =  -2649.70453708     A.U. after    8 cycles
            NFock=  8  Conv=0.52D-08     -V/T= 2.0062
 Calling FoFJK, ICntrl=      2127 FMM=F ISym2X=0 I1Cent= 0 IOpClX= 0 NMat=1 NMatS=1 NMatT=0.
 ***** Axes restored to original set *****
 -------------------------------------------------------------------
 Center     Atomic                   Forces (Hartrees/Bohr)
 Number     Number              X              Y              Z
 -------------------------------------------------------------------
      1       35           0.000136116    0.000074284    0.000010516
      2        6          -0.000239903   -0.000073953   -0.000015197
      3        6           0.000022204   -0.000050496   -0.000002096
      4        1           0.000011355   -0.000018841   -0.000000563
      5        1           0.000088866    0.000108566    0.000010368
      6        1          -0.000018638   -0.000039559   -0.000003029
 -------------------------------------------------------------------
 Cartesian Forces:  Max     0.000239903 RMS     0.000079111

 GradGradGradGradGradGradGradGradGradGradGradGradGradGradGradGradGradGrad
 Berny optimization.
 Using GEDIIS/GDIIS optimizer.
 FormGI is forming the generalized inverse of G from B-inverse, IUseBI=4.
 Internal  Forces:  Max     0.000197716 RMS     0.000076096
 Search for a local minimum.
 Step number   4 out of a maximum of   25
 All quantities printed in internal units (Hartrees-Bohrs-Radians)
 Mixed Optimization -- En-DIIS/RFO-DIIS
 Swapping is turned off.
 Update second derivatives using D2CorX and points    1    2    3    4
 DE= -8.56D-06 DEPred=-8.76D-06 R= 9.77D-01
 TightC=F SS=  1.41D+00  RLast= 1.25D-02 DXNew= 7.2819D-01 3.7467D-02
 Trust test= 9.77D-01 RLast= 1.25D-02 DXMaxT set to 4.33D-01
 The second derivative matrix:
                          R1        R2        R3        R4        R5
           R1           0.18128
           R2           0.03012   0.59358
           R3           0.00005  -0.00175   0.35734
           R4          -0.00286  -0.00262   0.00001   0.35948
           R5           0.00409   0.00235  -0.00062   0.00020   0.36232
           A1           0.03098   0.00659  -0.00636  -0.00201  -0.00079
           A2          -0.00835  -0.00902  -0.00007   0.00067  -0.00426
           A3          -0.02250  -0.00924   0.00423   0.00150  -0.00279
           A4           0.00251  -0.00398  -0.00185   0.00006  -0.00058
           A5           0.00059   0.00540   0.00136  -0.00029   0.00068
           A6          -0.00309  -0.00142   0.00049   0.00024  -0.00010
           D1          -0.00000  -0.00000  -0.00000   0.00000   0.00000
           D2          -0.00001  -0.00001   0.00000   0.00000  -0.00000
           D3           0.00001   0.00001  -0.00000  -0.00000   0.00000
           D4          -0.00000   0.00000   0.00000  -0.00000  -0.00000
                          A1        A2        A3        A4        A5
           A1           0.19865
           A2          -0.01922   0.17123
           A3           0.01733   0.01558   0.15224
           A4          -0.01889  -0.00334   0.01024   0.15431
           A5           0.01631   0.00188  -0.00920   0.00434   0.15690
           A6           0.00258   0.00147  -0.00104   0.00136  -0.00124
           D1          -0.00001   0.00000   0.00000  -0.00000   0.00000
           D2          -0.00001   0.00001   0.00001  -0.00000  -0.00000
           D3           0.00000  -0.00000  -0.00000  -0.00000   0.00000
           D4           0.00000   0.00000  -0.00000   0.00000  -0.00000
                          A6        D1        D2        D3        D4
           A6           0.15988
           D1           0.00000   0.02869
           D2           0.00000   0.00000   0.02869
           D3          -0.00000  -0.00000  -0.00000   0.02869
           D4          -0.00000  -0.00000   0.00000  -0.00000   0.02869
 ITU=  1  1  1  0
     Eigenvalues ---    0.02869   0.02869   0.02869   0.10844   0.15976
     Eigenvalues ---    0.16018   0.17068   0.22877   0.35753   0.35954
     Eigenvalues ---    0.36254   0.59659
 En-DIIS/RFO-DIIS/Sim-DIIS IScMMF=       -3 using points:     4    3
 RFO step:  Lambda=-4.21617531D-07.
 DidBck=F Rises=F RFO-DIIS coefs:    1.02260   -0.02260
 Iteration  1 RMS(Cart)=  0.00047405 RMS(Int)=  0.00000014
 Iteration  2 RMS(Cart)=  0.00000014 RMS(Int)=  0.00000000
 Variable       Old X    -DE/DX   Delta X   Delta X   Delta X     New X
                                 (Linear)    (Quad)   (Total)
    R1        3.60319  -0.00013  -0.00005  -0.00061  -0.00066   3.60254
    R2        2.50491   0.00001   0.00001   0.00006   0.00007   2.50498
    R3        2.04587   0.00003   0.00001   0.00008   0.00010   2.04596
    R4        2.04849   0.00001  -0.00000   0.00003   0.00003   2.04852
    R5        2.05229  -0.00004  -0.00001  -0.00008  -0.00009   2.05220
    A1        2.14524  -0.00016   0.00017  -0.00072  -0.00054   2.14470
    A2        1.96092   0.00020   0.00001   0.00105   0.00106   1.96198
    A3        2.17702  -0.00004  -0.00019  -0.00033  -0.00052   2.17651
    A4        2.13696   0.00003   0.00009   0.00013   0.00021   2.13717
    A5        2.08797  -0.00003  -0.00007  -0.00012  -0.00019   2.08778
    A6        2.05826  -0.00000  -0.00002  -0.00000  -0.00003   2.05824
    D1       -0.00000   0.00000  -0.00000   0.00000   0.00000   0.00000
    D2        3.14159   0.00000  -0.00000   0.00001   0.00001  -3.14159
    D3       -3.14159  -0.00000  -0.00000  -0.00000  -0.00000   3.14159
    D4       -0.00000   0.00000   0.00000   0.00000   0.00000  -0.00000
         Item               Value     Threshold  Converged?
 Maximum Force            0.000198     0.000450     YES
 RMS     Force            0.000076     0.000300     YES
 Maximum Displacement     0.001127     0.001800     YES
 RMS     Displacement     0.000474     0.001200     YES
 Predicted change in Energy=-2.108092D-07
 Optimization completed.
    -- Stationary point found.
                           ----------------------------
                           !   Optimized Parameters   !
                           ! (Angstroms and Degrees)  !
 --------------------------                            --------------------------
 ! Name  Definition              Value          Derivative Info.                !
 --------------------------------------------------------------------------------
 ! R1    R(1,2)                  1.9067         -DE/DX =   -0.0001              !
 ! R2    R(2,3)                  1.3255         -DE/DX =    0.0                 !
 ! R3    R(2,5)                  1.0826         -DE/DX =    0.0                 !
 ! R4    R(3,4)                  1.084          -DE/DX =    0.0                 !
 ! R5    R(3,6)                  1.086          -DE/DX =    0.0                 !
 ! A1    A(1,2,3)              122.9134         -DE/DX =   -0.0002              !
 ! A2    A(1,2,5)              112.3525         -DE/DX =    0.0002              !
 ! A3    A(3,2,5)              124.7341         -DE/DX =    0.0                 !
 ! A4    A(2,3,4)              122.4386         -DE/DX =    0.0                 !
 ! A5    A(2,3,6)              119.6316         -DE/DX =    0.0                 !
 ! A6    A(4,3,6)              117.9298         -DE/DX =    0.0                 !
 ! D1    D(1,2,3,4)             -0.0001         -DE/DX =    0.0                 !
 ! D2    D(1,2,3,6)           -180.0002         -DE/DX =    0.0                 !
 ! D3    D(5,2,3,4)            180.0001         -DE/DX =    0.0                 !
 ! D4    D(5,2,3,6)             -0.0001         -DE/DX =    0.0                 !
 --------------------------------------------------------------------------------
 GradGradGradGradGradGradGradGradGradGradGradGradGradGradGradGradGradGrad

                          Input orientation:                          
 ---------------------------------------------------------------------
 Center     Atomic      Atomic             Coordinates (Angstroms)
 Number     Number       Type             X           Y           Z
 ---------------------------------------------------------------------
      1         35           0       -1.682461   -1.585604   -0.051042
      2          6           0       -0.640410    0.005062    0.088674
      3          6           0        0.683794   -0.004217    0.147443
      4          1           0        1.260647   -0.921580    0.119622
      5          1           0       -1.252725    0.897550    0.113450
      6          1           0        1.224354    0.934389    0.226552
 ---------------------------------------------------------------------
                    Distance matrix (angstroms):
                    1          2          3          4          5
     1  Br   0.000000
     2  C    1.906727   0.000000
     3  C    2.852953   1.325540   0.000000
     4  H    3.021910   2.115098   1.084014   0.000000
     5  H    2.525428   1.082626   2.136457   3.102630   0.000000
     6  H    3.857071   2.088063   1.086023   1.859401   2.479934
                    6
     6  H    0.000000
 Stoichiometry    C2H3Br
 Framework group  C1[X(C2H3Br)]
 Deg. of freedom    12
 Full point group                 C1      NOp   1
 Largest Abelian subgroup         C1      NOp   1
 Largest concise Abelian subgroup C1      NOp   1
                         Standard orientation:                         
 ---------------------------------------------------------------------
 Center     Atomic      Atomic             Coordinates (Angstroms)
 Number     Number       Type             X           Y           Z
 ---------------------------------------------------------------------
      1         35           0        0.728401   -0.045126    0.000000
      2          6           0       -1.089685    0.529480   -0.000001
      3          6           0       -2.111806   -0.314514   -0.000000
      4          1           0       -1.977653   -1.390195   -0.000000
      5          1           0       -1.180528    1.608288    0.000001
      6          1           0       -3.126906    0.071512    0.000003
 ---------------------------------------------------------------------
 Rotational constants (GHZ):          54.5700500           4.0983289           3.8120367

 **********************************************************************

            Population analysis using the SCF Density.

 **********************************************************************

 Orbital symmetries:
       Occupied  (A) (A) (A) (A) (A) (A) (A) (A) (A) (A) (A) (A)
                 (A) (A) (A) (A) (A) (A) (A) (A) (A) (A) (A) (A)
                 (A)
       Virtual   (A) (A) (A) (A) (A) (A) (A) (A) (A) (A) (A) (A)
                 (A) (A) (A) (A) (A) (A) (A) (A) (A) (A) (A) (A)
                 (A) (A) (A) (A) (A) (A) (A) (A) (A) (A) (A) (A)
                 (A) (A) (A) (A) (A) (A) (A) (A) (A) (A) (A) (A)
                 (A) (A)
 The electronic state is 1-A.
 Alpha  occ. eigenvalues -- -482.90897 -61.87157 -56.39255 -56.38880 -56.38867
 Alpha  occ. eigenvalues --  -10.24801 -10.20323  -8.58374  -6.53761  -6.52521
 Alpha  occ. eigenvalues --   -6.52466  -2.65339  -2.64989  -2.64947  -2.63958
 Alpha  occ. eigenvalues --   -2.63957  -0.82336  -0.73421  -0.58104  -0.47970
 Alpha  occ. eigenvalues --   -0.44097  -0.36814  -0.33844  -0.28533  -0.25474
 Alpha virt. eigenvalues --   -0.00370   0.01232   0.10915   0.13441   0.21416
 Alpha virt. eigenvalues --    0.25564   0.31447   0.39624   0.46343   0.46360
 Alpha virt. eigenvalues --    0.47024   0.47032   0.49715   0.51321   0.52741
 Alpha virt. eigenvalues --    0.58713   0.65816   0.66087   0.76118   0.78809
 Alpha virt. eigenvalues --    0.84775   0.86585   0.90027   0.90457   1.09790
 Alpha virt. eigenvalues --    1.24116   1.35976   1.41926   1.55735   1.67754
 Alpha virt. eigenvalues --    1.85644   1.86205   1.96670   2.06026   2.08612
 Alpha virt. eigenvalues --    2.15410   2.37357   2.43667   2.55208   2.58933
 Alpha virt. eigenvalues --    2.62941   2.69067   2.94112   3.23876   3.38290
 Alpha virt. eigenvalues --    3.59481   4.14924   4.41824   8.59600  72.60519
          Condensed to atoms (all electrons):
               1          2          3          4          5          6
     1  Br  34.940105   0.283624  -0.063954  -0.004375  -0.050274   0.004378
     2  C    0.283624   4.815335   0.647730  -0.033823   0.384227  -0.025931
     3  C   -0.063954   0.647730   4.910756   0.386625  -0.043828   0.372024
     4  H   -0.004375  -0.033823   0.386625   0.555014   0.004792  -0.036829
     5  H   -0.050274   0.384227  -0.043828   0.004792   0.569541  -0.005603
     6  H    0.004378  -0.025931   0.372024  -0.036829  -0.005603   0.571683
 Mulliken charges:
               1
     1  Br  -0.109504
     2  C   -0.071162
     3  C   -0.209353
     4  H    0.128596
     5  H    0.141144
     6  H    0.120279
 Sum of Mulliken charges =  -0.00000
 Mulliken charges with hydrogens summed into heavy atoms:
               1
     1  Br  -0.109504
     2  C    0.069982
     3  C    0.039522
 Electronic spatial extent (au):  <R**2>=            330.8451
 Charge=              0.0000 electrons
 Dipole moment (field-independent basis, Debye):
    X=             -1.4486    Y=              0.3373    Z=              0.0000  Tot=              1.4874
 Quadrupole moment (field-independent basis, Debye-Ang):
   XX=            -26.6616   YY=            -28.5950   ZZ=            -32.3532
   XY=             -0.6612   XZ=             -0.0000   YZ=              0.0000
 Traceless Quadrupole moment (field-independent basis, Debye-Ang):
   XX=              2.5416   YY=              0.6083   ZZ=             -3.1499
   XY=             -0.6612   XZ=             -0.0000   YZ=              0.0000
 Octapole moment (field-independent basis, Debye-Ang**2):
  XXX=             16.6321  YYY=             -0.0269  ZZZ=              0.0000  XYY=              4.3793
  XXY=             -1.5661  XXZ=              0.0000  XZZ=              9.7757  YZZ=             -0.5114
  YYZ=              0.0000  XYZ=             -0.0000
 Hexadecapole moment (field-independent basis, Debye-Ang**3):
 XXXX=           -287.8290 YYYY=            -56.2196 ZZZZ=            -35.1355 XXXY=             -4.3188
 XXXZ=             -0.0001 YYYX=             -1.8061 YYYZ=              0.0000 ZZZX=             -0.0000
 ZZZY=              0.0000 XXYY=            -60.9108 XXZZ=            -65.3379 YYZZ=            -16.8473
 XXYZ=              0.0000 YYXZ=             -0.0000 ZZXY=             -0.5102
 N-N= 1.438244531979D+02 E-N=-6.601782564616D+03  KE= 2.633265022903D+03
 1\1\GINC-NOTCH141\FOpt\RB3LYP\6-31G(d,p)\C2H3Br1\U6029223\13-Feb-2021\
 0\\# B3LYP/6-31G(d,p) empiricaldispersion=GD3BJ int=(grid=fine) opt fr
 eq=noraman\\1_1.xyz\\0,1\Br,-1.6824606118,-1.5856043399,-0.0510417882\
 C,-0.6404099324,0.00506164,0.0886742912\C,0.6837940452,-0.0042172058,0
 .1474427474\H,1.2606471173,-0.9215795208,0.1196218253\H,-1.2527250653,
 0.8975504252,0.113450426\H,1.2243544471,0.9343890014,0.2265524983\\Ver
 sion=ES64L-G16RevB.01\State=1-A\HF=-2649.7045371\RMSD=5.224e-09\RMSF=7
 .911e-05\Dipole=0.3566661,0.4619283,0.0429931\Quadrupole=0.8248828,1.4
 933841,-2.3182669,0.7913108,0.1881228,0.2597714\PG=C01 [X(C2H3Br1)]\\@


 COMMON SENSE IS NOT SO COMMON.   -- VOLTAIRE
 Job cpu time:       0 days  0 hours  5 minutes 22.1 seconds.
 Elapsed time:       0 days  0 hours  0 minutes  8.6 seconds.
 File lengths (MBytes):  RWF=      6 Int=      0 D2E=      0 Chk=      2 Scr=      1
 Normal termination of Gaussian 16 at Sat Feb 13 09:35:44 2021.
 Link1:  Proceeding to internal job step number  2.
 ----------------------------------------------------------------------
 #N Geom=AllCheck Guess=TCheck SCRF=Check GenChk RB3LYP/6-31G(d,p) Freq
 ----------------------------------------------------------------------
 1/10=4,29=7,30=1,38=1,40=1/1,3;
 2/12=2,40=1/2;
 3/5=1,6=6,7=101,11=2,14=-4,25=1,30=1,70=2,71=2,74=-5,75=-4,116=1,124=41,140=1/1,2,3;
 4/5=101/1;
 5/5=2,38=6,98=1/2;
 8/6=4,10=90,11=11/1;
 11/6=1,8=1,9=11,15=111,16=1/1,2,10;
 10/6=1/2;
 6/7=2,8=2,9=2,10=2,28=1/1;
 7/8=1,10=1,25=1/1,2,3,16;
 1/10=4,30=1/3;
 99//99;
 Structure from the checkpoint file:  "1_1.chk"
 -------
 1_1.xyz
 -------
 Charge =  0 Multiplicity = 1
 Redundant internal coordinates found in file.  (old form).
 Br,0,-1.6824606118,-1.5856043399,-0.0510417882
 C,0,-0.6404099324,0.00506164,0.0886742912
 C,0,0.6837940452,-0.0042172058,0.1474427474
 H,0,1.2606471173,-0.9215795208,0.1196218253
 H,0,-1.2527250653,0.8975504252,0.113450426
 H,0,1.2243544471,0.9343890014,0.2265524983
 Recover connectivity data from disk.

 GradGradGradGradGradGradGradGradGradGradGradGradGradGradGradGradGradGrad
 Berny optimization.
 Initialization pass.
                           ----------------------------
                           !    Initial Parameters    !
                           ! (Angstroms and Degrees)  !
 --------------------------                            --------------------------
 ! Name  Definition              Value          Derivative Info.                !
 --------------------------------------------------------------------------------
 ! R1    R(1,2)                  1.9067         calculate D2E/DX2 analytically  !
 ! R2    R(2,3)                  1.3255         calculate D2E/DX2 analytically  !
 ! R3    R(2,5)                  1.0826         calculate D2E/DX2 analytically  !
 ! R4    R(3,4)                  1.084          calculate D2E/DX2 analytically  !
 ! R5    R(3,6)                  1.086          calculate D2E/DX2 analytically  !
 ! A1    A(1,2,3)              122.9134         calculate D2E/DX2 analytically  !
 ! A2    A(1,2,5)              112.3525         calculate D2E/DX2 analytically  !
 ! A3    A(3,2,5)              124.7341         calculate D2E/DX2 analytically  !
 ! A4    A(2,3,4)              122.4386         calculate D2E/DX2 analytically  !
 ! A5    A(2,3,6)              119.6316         calculate D2E/DX2 analytically  !
 ! A6    A(4,3,6)              117.9298         calculate D2E/DX2 analytically  !
 ! D1    D(1,2,3,4)             -0.0001         calculate D2E/DX2 analytically  !
 ! D2    D(1,2,3,6)            179.9998         calculate D2E/DX2 analytically  !
 ! D3    D(5,2,3,4)           -179.9999         calculate D2E/DX2 analytically  !
 ! D4    D(5,2,3,6)             -0.0001         calculate D2E/DX2 analytically  !
 --------------------------------------------------------------------------------
 Trust Radius=3.00D-01 FncErr=1.00D-07 GrdErr=1.00D-07 EigMax=2.50D+02 EigMin=1.00D-04
 Number of steps in this run=      2 maximum allowed number of steps=      2.
 GradGradGradGradGradGradGradGradGradGradGradGradGradGradGradGradGradGrad

                          Input orientation:                          
 ---------------------------------------------------------------------
 Center     Atomic      Atomic             Coordinates (Angstroms)
 Number     Number       Type             X           Y           Z
 ---------------------------------------------------------------------
      1         35           0       -1.682461   -1.585604   -0.051042
      2          6           0       -0.640410    0.005062    0.088674
      3          6           0        0.683794   -0.004217    0.147443
      4          1           0        1.260647   -0.921580    0.119622
      5          1           0       -1.252725    0.897550    0.113450
      6          1           0        1.224354    0.934389    0.226552
 ---------------------------------------------------------------------
                    Distance matrix (angstroms):
                    1          2          3          4          5
     1  Br   0.000000
     2  C    1.906727   0.000000
     3  C    2.852953   1.325540   0.000000
     4  H    3.021910   2.115098   1.084014   0.000000
     5  H    2.525428   1.082626   2.136457   3.102630   0.000000
     6  H    3.857071   2.088063   1.086023   1.859401   2.479934
                    6
     6  H    0.000000
 Stoichiometry    C2H3Br
 Framework group  C1[X(C2H3Br)]
 Deg. of freedom    12
 Full point group                 C1      NOp   1
 Largest Abelian subgroup         C1      NOp   1
 Largest concise Abelian subgroup C1      NOp   1
                         Standard orientation:                         
 ---------------------------------------------------------------------
 Center     Atomic      Atomic             Coordinates (Angstroms)
 Number     Number       Type             X           Y           Z
 ---------------------------------------------------------------------
      1         35           0        0.728401   -0.045126    0.000000
      2          6           0       -1.089685    0.529480   -0.000001
      3          6           0       -2.111806   -0.314514   -0.000000
      4          1           0       -1.977653   -1.390195   -0.000000
      5          1           0       -1.180528    1.608288    0.000001
      6          1           0       -3.126906    0.071512    0.000003
 ---------------------------------------------------------------------
 Rotational constants (GHZ):          54.5700500           4.0983289           3.8120367
 Standard basis: 6-31G(d,p) (6D, 7F)
 There are    75 symmetry adapted cartesian basis functions of A   symmetry.
 There are    75 symmetry adapted basis functions of A   symmetry.
    75 basis functions,   160 primitive gaussians,    75 cartesian basis functions
    25 alpha electrons       25 beta electrons
       nuclear repulsion energy       143.8315168386 Hartrees.
 NAtoms=    6 NActive=    6 NUniq=    6 SFac= 1.00D+00 NAtFMM=   60 NAOKFM=F Big=F
 Integral buffers will be    131072 words long.
 Raffenetti 2 integral format.
 Two-electron integral symmetry is turned on.
 Nuclear repulsion after empirical dispersion term =      143.8244531979 Hartrees.
 One-electron integrals computed using PRISM.
 NBasis=    75 RedAO= T EigKep=  7.56D-04  NBF=    75
 NBsUse=    75 1.00D-06 EigRej= -1.00D+00 NBFU=    75
 Initial guess from the checkpoint file:  "1_1.chk"
 B after Tr=     0.000000    0.000000   -0.000000
         Rot=    1.000000   -0.000000   -0.000000   -0.000000 Ang=   0.00 deg.
 Keep R1 ints in memory in canonical form, NReq=39871133.
 Requested convergence on RMS density matrix=1.00D-08 within 128 cycles.
 Requested convergence on MAX density matrix=1.00D-06.
 Requested convergence on             energy=1.00D-06.
 No special actions if energy rises.
 SCF Done:  E(RB3LYP) =  -2649.70453708     A.U. after    1 cycles
            NFock=  1  Conv=0.23D-08     -V/T= 2.0062
 DoSCS=F DFT=T ScalE2(SS,OS)=  1.000000  1.000000
 Range of M.O.s used for correlation:     1    75
 NBasis=    75 NAE=    25 NBE=    25 NFC=     0 NFV=     0
 NROrb=     75 NOA=    25 NOB=    25 NVA=    50 NVB=    50

 **** Warning!!: The largest alpha MO coefficient is  0.19656194D+02

 Symmetrizing basis deriv contribution to polar:
 IMax=3 JMax=2 DiffMx= 0.00D+00
 G2DrvN: will do     7 centers at a time, making    1 passes.
 Calling FoFCou, ICntrl=  3107 FMM=F I1Cent=   0 AccDes= 0.00D+00.
 End of G2Drv F.D. properties file   721 does not exist.
 End of G2Drv F.D. properties file   722 does not exist.
 End of G2Drv F.D. properties file   788 does not exist.
          IDoAtm=111111
          Differentiating once with respect to electric field.
                with respect to dipole field.
          Differentiating once with respect to nuclear coordinates.
 Keep R1 ints in memory in canonical form, NReq=39803597.
          There are    21 degrees of freedom in the 1st order CPHF.  IDoFFX=6 NUNeed=     3.
     18 vectors produced by pass  0 Test12= 5.95D-15 4.76D-09 XBig12= 6.01D+01 5.41D+00.
 AX will form    18 AO Fock derivatives at one time.
     18 vectors produced by pass  1 Test12= 5.95D-15 4.76D-09 XBig12= 5.14D+00 7.34D-01.
     18 vectors produced by pass  2 Test12= 5.95D-15 4.76D-09 XBig12= 1.02D-01 7.16D-02.
     18 vectors produced by pass  3 Test12= 5.95D-15 4.76D-09 XBig12= 5.14D-04 4.47D-03.
     18 vectors produced by pass  4 Test12= 5.95D-15 4.76D-09 XBig12= 1.58D-06 3.29D-04.
     10 vectors produced by pass  5 Test12= 5.95D-15 4.76D-09 XBig12= 1.18D-09 6.14D-06.
      3 vectors produced by pass  6 Test12= 5.95D-15 4.76D-09 XBig12= 9.06D-13 2.28D-07.
      1 vectors produced by pass  7 Test12= 5.95D-15 4.76D-09 XBig12= 8.84D-16 7.38D-09.
 InvSVY:  IOpt=1 It=  1 EMax= 3.11D-15
 Solved reduced A of dimension   104 with    21 vectors.
 Isotropic polarizability for W=    0.000000       36.39 Bohr**3.
 End of Minotr F.D. properties file   721 does not exist.
 End of Minotr F.D. properties file   722 does not exist.
 End of Minotr F.D. properties file   788 does not exist.

 **********************************************************************

            Population analysis using the SCF Density.

 **********************************************************************

 Orbital symmetries:
       Occupied  (A) (A) (A) (A) (A) (A) (A) (A) (A) (A) (A) (A)
                 (A) (A) (A) (A) (A) (A) (A) (A) (A) (A) (A) (A)
                 (A)
       Virtual   (A) (A) (A) (A) (A) (A) (A) (A) (A) (A) (A) (A)
                 (A) (A) (A) (A) (A) (A) (A) (A) (A) (A) (A) (A)
                 (A) (A) (A) (A) (A) (A) (A) (A) (A) (A) (A) (A)
                 (A) (A) (A) (A) (A) (A) (A) (A) (A) (A) (A) (A)
                 (A) (A)
 The electronic state is 1-A.
 Alpha  occ. eigenvalues -- -482.90897 -61.87157 -56.39255 -56.38880 -56.38867
 Alpha  occ. eigenvalues --  -10.24801 -10.20323  -8.58374  -6.53761  -6.52521
 Alpha  occ. eigenvalues --   -6.52466  -2.65339  -2.64989  -2.64947  -2.63958
 Alpha  occ. eigenvalues --   -2.63957  -0.82336  -0.73421  -0.58104  -0.47970
 Alpha  occ. eigenvalues --   -0.44097  -0.36814  -0.33844  -0.28533  -0.25474
 Alpha virt. eigenvalues --   -0.00370   0.01232   0.10915   0.13441   0.21416
 Alpha virt. eigenvalues --    0.25564   0.31447   0.39624   0.46343   0.46360
 Alpha virt. eigenvalues --    0.47024   0.47032   0.49715   0.51321   0.52741
 Alpha virt. eigenvalues --    0.58713   0.65816   0.66087   0.76118   0.78809
 Alpha virt. eigenvalues --    0.84775   0.86585   0.90027   0.90457   1.09790
 Alpha virt. eigenvalues --    1.24116   1.35976   1.41926   1.55735   1.67754
 Alpha virt. eigenvalues --    1.85644   1.86205   1.96670   2.06026   2.08612
 Alpha virt. eigenvalues --    2.15410   2.37357   2.43667   2.55208   2.58933
 Alpha virt. eigenvalues --    2.62941   2.69067   2.94112   3.23876   3.38290
 Alpha virt. eigenvalues --    3.59481   4.14924   4.41824   8.59600  72.60519
          Condensed to atoms (all electrons):
               1          2          3          4          5          6
     1  Br  34.940105   0.283624  -0.063954  -0.004375  -0.050274   0.004378
     2  C    0.283624   4.815335   0.647730  -0.033823   0.384227  -0.025931
     3  C   -0.063954   0.647730   4.910756   0.386625  -0.043828   0.372024
     4  H   -0.004375  -0.033823   0.386625   0.555014   0.004792  -0.036829
     5  H   -0.050274   0.384227  -0.043828   0.004792   0.569541  -0.005603
     6  H    0.004378  -0.025931   0.372024  -0.036829  -0.005603   0.571683
 Mulliken charges:
               1
     1  Br  -0.109504
     2  C   -0.071162
     3  C   -0.209353
     4  H    0.128596
     5  H    0.141144
     6  H    0.120279
 Sum of Mulliken charges =  -0.00000
 Mulliken charges with hydrogens summed into heavy atoms:
               1
     1  Br  -0.109504
     2  C    0.069982
     3  C    0.039522
 APT charges:
               1
     1  Br  -0.245058
     2  C    0.307140
     3  C   -0.186817
     4  H    0.063048
     5  H    0.017257
     6  H    0.044431
 Sum of APT charges =   0.00000
 APT charges with hydrogens summed into heavy atoms:
               1
     1  Br  -0.245058
     2  C    0.324397
     3  C   -0.079339
 Electronic spatial extent (au):  <R**2>=            330.8451
 Charge=              0.0000 electrons
 Dipole moment (field-independent basis, Debye):
    X=             -1.4486    Y=              0.3373    Z=              0.0000  Tot=              1.4874
 Quadrupole moment (field-independent basis, Debye-Ang):
   XX=            -26.6616   YY=            -28.5950   ZZ=            -32.3532
   XY=             -0.6612   XZ=             -0.0000   YZ=              0.0000
 Traceless Quadrupole moment (field-independent basis, Debye-Ang):
   XX=              2.5416   YY=              0.6083   ZZ=             -3.1499
   XY=             -0.6612   XZ=             -0.0000   YZ=              0.0000
 Octapole moment (field-independent basis, Debye-Ang**2):
  XXX=             16.6321  YYY=             -0.0269  ZZZ=              0.0000  XYY=              4.3793
  XXY=             -1.5661  XXZ=              0.0000  XZZ=              9.7757  YZZ=             -0.5114
  YYZ=              0.0000  XYZ=             -0.0000
 Hexadecapole moment (field-independent basis, Debye-Ang**3):
 XXXX=           -287.8290 YYYY=            -56.2196 ZZZZ=            -35.1355 XXXY=             -4.3188
 XXXZ=             -0.0001 YYYX=             -1.8061 YYYZ=              0.0000 ZZZX=             -0.0000
 ZZZY=              0.0000 XXYY=            -60.9108 XXZZ=            -65.3379 YYZZ=            -16.8473
 XXYZ=              0.0000 YYXZ=             -0.0000 ZZXY=             -0.5102
 N-N= 1.438244531979D+02 E-N=-6.601782560854D+03  KE= 2.633265021940D+03
  Exact polarizability:  56.626   2.370  33.071  -0.000   0.000  19.461
 Approx polarizability:  87.192   5.810  51.122  -0.000   0.000  29.150
 Calling FoFJK, ICntrl=    100127 FMM=F ISym2X=0 I1Cent= 0 IOpClX= 0 NMat=1 NMatS=1 NMatT=0.
 Full mass-weighted force constant matrix:
 Low frequencies ---  -22.2106  -10.2538   -0.0186   -0.0148   -0.0142   17.2062
 Low frequencies ---  348.5885  597.2626  600.9003
 Diagonal vibrational polarizability:
        3.2317720       0.1454694       2.6216679
 Harmonic frequencies (cm**-1), IR intensities (KM/Mole), Raman scattering
 activities (A**4/AMU), depolarization ratios for plane and unpolarized
 incident light, reduced masses (AMU), force constants (mDyne/A),
 and normal coordinates:
                      1                      2                      3
                      A                      A                      A
 Frequencies --    348.5867               597.2611               600.8998
 Red. masses --      3.1973                 3.8454                 1.4074
 Frc consts  --      0.2289                 0.8082                 0.2994
 IR Inten    --      0.1451                26.9376                12.1480
  Atom  AN      X      Y      Z        X      Y      Z        X      Y      Z
     1  35    -0.07  -0.02   0.00    -0.08   0.03  -0.00    -0.00   0.00   0.01
     2   6     0.09   0.21  -0.00     0.35  -0.27   0.00     0.00  -0.00  -0.18
     3   6     0.32  -0.05   0.00     0.13   0.03  -0.00     0.00   0.00   0.04
     4   1     0.75   0.00   0.00    -0.42  -0.04   0.00    -0.00  -0.00  -0.47
     5   1     0.01   0.20  -0.00     0.30  -0.27  -0.00     0.00  -0.00   0.41
     6   1     0.17  -0.45  -0.00     0.34   0.57  -0.00     0.00   0.00   0.76
                      4                      5                      6
                      A                      A                      A
 Frequencies --    927.5701               978.0092              1021.7949
 Red. masses --      1.3706                 1.0663                 1.3222
 Frc consts  --      0.6948                 0.6009                 0.8134
 IR Inten    --     22.3202                36.1881                10.2540
  Atom  AN      X      Y      Z        X      Y      Z        X      Y      Z
     1  35    -0.00   0.00   0.00     0.00  -0.00  -0.00    -0.00   0.01   0.00
     2   6     0.00  -0.00   0.07    -0.00   0.00  -0.07     0.06  -0.09  -0.00
     3   6    -0.00   0.00  -0.17     0.00  -0.00  -0.03    -0.10   0.08   0.00
     4   1     0.00   0.00   0.53    -0.00  -0.00   0.63     0.53   0.15   0.00
     5   1     0.00   0.00  -0.25    -0.00  -0.00   0.75     0.54  -0.05   0.00
     6   1     0.00  -0.00   0.79     0.00   0.00  -0.18    -0.32  -0.53  -0.00
                      7                      8                      9
                      A                      A                      A
 Frequencies --   1284.5535              1414.0075              1682.0317
 Red. masses --      1.2054                 1.1779                 4.4307
 Frc consts  --      1.1719                 1.3876                 7.3856
 IR Inten    --     29.9289                 8.8322                44.4278
  Atom  AN      X      Y      Z        X      Y      Z        X      Y      Z
     1  35    -0.00   0.00   0.00     0.00   0.00   0.00     0.00   0.00   0.00
     2   6    -0.06   0.07   0.00    -0.10  -0.07   0.00    -0.31  -0.21   0.00
     3   6     0.01  -0.10  -0.00     0.01   0.01   0.00     0.32   0.26  -0.00
     4   1    -0.27  -0.13   0.00     0.69   0.11  -0.00    -0.50   0.21   0.00
     5   1     0.92   0.14   0.00     0.09  -0.07  -0.00     0.20  -0.25  -0.00
     6   1     0.09   0.14  -0.00     0.27   0.64  -0.00     0.06  -0.53   0.00
                     10                     11                     12
                      A                      A                      A
 Frequencies --   3166.1240              3237.0757              3262.5823
 Red. masses --      1.0590                 1.0986                 1.1148
 Frc consts  --      6.2547                 6.7823                 6.9917
 IR Inten    --      0.2236                 3.8270                 3.4062
  Atom  AN      X      Y      Z        X      Y      Z        X      Y      Z
     1  35     0.00  -0.00   0.00    -0.00   0.00  -0.00    -0.00   0.00  -0.00
[...]
 Integral buffers will be    131072 words long.
 Raffenetti 2 integral format.
 Two-electron integral symmetry is turned on.
 One-electron integrals computed using PRISM.
   1 Symmetry operations used in ECPInt.
 ECPInt:  NShTT=    1275 NPrTT=    4872 LenC2=    1264 LenP2D=    4056.
 LDataN:  DoStor=T MaxTD1= 6 Len=  172
 NBasis=   128 RedAO= T EigKep=  1.96D-04  NBF=   128
 NBsUse=   128 1.00D-06 EigRej= -1.00D+00 NBFU=   128
 Initial guess from the checkpoint file:  "1_1.chk"
 B after Tr=     0.000000    0.000000   -0.000000
         Rot=    1.000000    0.000000    0.000000    0.000000 Ang=   0.00 deg.
 Keep R1 ints in memory in canonical form, NReq=73003610.
 Requested convergence on RMS density matrix=1.00D-08 within 128 cycles.
 Requested convergence on MAX density matrix=1.00D-06.
 Requested convergence on             energy=1.00D-06.
 No special actions if energy rises.
 SCF Done:  E(RM06) =  -2652.01601973     A.U. after    1 cycles
            NFock=  1  Conv=0.12D-08     -V/T= 2.0012
 DoSCS=F DFT=T ScalE2(SS,OS)=  1.000000  1.000000
 Range of M.O.s used for correlation:     1   128
 NBasis=   128 NAE=    25 NBE=    25 NFC=     0 NFV=     0
 NROrb=    128 NOA=    25 NOB=    25 NVA=   103 NVB=   103

 **** Warning!!: The largest alpha MO coefficient is  0.15922421D+02

          Differentiating once with respect to electric field.
                with respect to dipole field.
          Electric field/nuclear overlap derivatives assumed to be zero.
 Keep R1 ints in memory in canonical form, NReq=72877803.
          There are     3 degrees of freedom in the 1st order CPHF.  IDoFFX=0 NUNeed=     3.
      3 vectors produced by pass  0 Test12= 8.58D-14 3.33D-08 XBig12= 6.15D+01 5.24D+00.
 AX will form     3 AO Fock derivatives at one time.
      3 vectors produced by pass  1 Test12= 8.58D-14 3.33D-08 XBig12= 1.14D+01 1.12D+00.
      3 vectors produced by pass  2 Test12= 8.58D-14 3.33D-08 XBig12= 3.24D+00 5.85D-01.
      3 vectors produced by pass  3 Test12= 8.58D-14 3.33D-08 XBig12= 1.72D-01 8.52D-02.
      3 vectors produced by pass  4 Test12= 8.58D-14 3.33D-08 XBig12= 1.50D-02 2.73D-02.
      3 vectors produced by pass  5 Test12= 8.58D-14 3.33D-08 XBig12= 1.36D-03 9.15D-03.
      3 vectors produced by pass  6 Test12= 8.58D-14 3.33D-08 XBig12= 1.43D-04 3.54D-03.
      3 vectors produced by pass  7 Test12= 8.58D-14 3.33D-08 XBig12= 2.38D-06 2.87D-04.
      3 vectors produced by pass  8 Test12= 8.58D-14 3.33D-08 XBig12= 7.34D-08 6.38D-05.
      3 vectors produced by pass  9 Test12= 8.58D-14 3.33D-08 XBig12= 1.16D-09 6.43D-06.
      2 vectors produced by pass 10 Test12= 8.58D-14 3.33D-08 XBig12= 2.21D-11 1.68D-06.
      2 vectors produced by pass 11 Test12= 8.58D-14 3.33D-08 XBig12= 3.50D-13 2.01D-07.
 InvSVY:  IOpt=1 It=  1 EMax= 1.78D-15
 Solved reduced A of dimension    34 with     3 vectors.
 Isotropic polarizability for W=    0.000000       44.27 Bohr**3.
 End of Minotr F.D. properties file   721 does not exist.
 End of Minotr F.D. properties file   722 does not exist.
 End of Minotr F.D. properties file   788 does not exist.

 **********************************************************************

            Population analysis using the SCF Density.

 **********************************************************************

 Orbital symmetries:
       Occupied  (A) (A) (A) (A) (A) (A) (A) (A) (A) (A) (A) (A)
                 (A) (A) (A) (A) (A) (A) (A) (A) (A) (A) (A) (A)
                 (A)
       Virtual   (A) (A) (A) (A) (A) (A) (A) (A) (A) (A) (A) (A)
                 (A) (A) (A) (A) (A) (A) (A) (A) (A) (A) (A) (A)
                 (A) (A) (A) (A) (A) (A) (A) (A) (A) (A) (A) (A)
                 (A) (A) (A) (A) (A) (A) (A) (A) (A) (A) (A) (A)
                 (A) (A) (A) (A) (A) (A) (A) (A) (A) (A) (A) (A)
                 (A) (A) (A) (A) (A) (A) (A) (A) (A) (A) (A) (A)
                 (A) (A) (A) (A) (A) (A) (A) (A) (A) (A) (A) (A)
                 (A) (A) (A) (A) (A) (A) (A) (A) (A) (A) (A) (A)
                 (A) (A) (A) (A) (A) (A) (A)
 The electronic state is 1-A.
 Alpha  occ. eigenvalues -- -483.19502 -62.80771 -56.51909 -56.51523 -56.51504
 Alpha  occ. eigenvalues --  -10.29792 -10.25415  -8.85093  -6.63167  -6.61900
 Alpha  occ. eigenvalues --   -6.61838  -2.68926  -2.68569  -2.68524  -2.67498
 Alpha  occ. eigenvalues --   -2.67498  -0.84210  -0.75433  -0.59323  -0.49332
 Alpha  occ. eigenvalues --   -0.45441  -0.37749  -0.35751  -0.30403  -0.27412
 Alpha virt. eigenvalues --   -0.01474   0.00625   0.05455   0.07381   0.10687
 Alpha virt. eigenvalues --    0.15728   0.17903   0.20414   0.21986   0.23475
 Alpha virt. eigenvalues --    0.25015   0.26627   0.28075   0.28437   0.29426
 Alpha virt. eigenvalues --    0.33266   0.35915   0.36803   0.37371   0.40751
 Alpha virt. eigenvalues --    0.41563   0.49764   0.53596   0.57069   0.61182
 Alpha virt. eigenvalues --    0.62132   0.71445   0.75576   0.86394   0.87615
 Alpha virt. eigenvalues --    0.91335   0.96469   1.01612   1.06007   1.07815
 Alpha virt. eigenvalues --    1.16853   1.29228   1.31463   1.32461   1.35750
 Alpha virt. eigenvalues --    1.37895   1.41331   1.44971   1.47039   1.47562
 Alpha virt. eigenvalues --    1.52327   1.53277   1.53866   1.55881   1.57964
 Alpha virt. eigenvalues --    1.60435   1.62972   1.64520   1.66743   1.72681
 Alpha virt. eigenvalues --    1.72737   1.77021   1.78401   1.83900   1.88058
 Alpha virt. eigenvalues --    2.05554   2.11560   2.20451   2.29370   2.35341
 Alpha virt. eigenvalues --    2.42514   2.49101   2.52184   2.55039   2.61562
 Alpha virt. eigenvalues --    2.75982   2.76827   2.78043   2.83471   2.86517
 Alpha virt. eigenvalues --    3.02021   3.05667   3.07589   3.08284   3.11906
 Alpha virt. eigenvalues --    3.21856   3.29577   3.30327   3.36375   3.36544
 Alpha virt. eigenvalues --    3.44629   3.62351   3.68740   3.90835   3.96232
 Alpha virt. eigenvalues --    4.02999   4.05197   4.14199   4.19876   4.25223
 Alpha virt. eigenvalues --    4.28306   4.43223   4.50333   4.53993   4.63640
 Alpha virt. eigenvalues --    7.63310  21.88626  22.51883
          Condensed to atoms (all electrons):
               1          2          3          4          5          6
     1  Br  34.902142   0.268290  -0.037180  -0.007816  -0.061030   0.007197
     2  C    0.268290   4.920231   0.550227  -0.037602   0.415565  -0.049245
     3  C   -0.037180   0.550227   4.960287   0.407110  -0.049677   0.407754
     4  H   -0.007816  -0.037602   0.407110   0.530303   0.005652  -0.021211
     5  H   -0.061030   0.415565  -0.049677   0.005652   0.552789  -0.004168
     6  H    0.007197  -0.049245   0.407754  -0.021211  -0.004168   0.546519
 Mulliken charges:
               1
     1  Br  -0.071602
     2  C   -0.067465
     3  C   -0.238521
     4  H    0.123563
     5  H    0.140871
     6  H    0.113155
 Sum of Mulliken charges =  -0.00000
 Mulliken charges with hydrogens summed into heavy atoms:
               1
     1  Br  -0.071602
     2  C    0.073405
     3  C   -0.001803
 Electronic spatial extent (au):  <R**2>=            331.9039
 Charge=             -0.0000 electrons
 Dipole moment (field-independent basis, Debye):
    X=             -1.3714    Y=              0.2948    Z=              0.0000  Tot=              1.4028
 Quadrupole moment (field-independent basis, Debye-Ang):
   XX=            -27.1480   YY=            -29.0326   ZZ=            -32.8531
   XY=             -0.5986   XZ=             -0.0000   YZ=              0.0000
 Traceless Quadrupole moment (field-independent basis, Debye-Ang):
   XX=              2.5299   YY=              0.6453   ZZ=             -3.1752
   XY=             -0.5986   XZ=             -0.0000   YZ=              0.0000
 Octapole moment (field-independent basis, Debye-Ang**2):
  XXX=             17.3227  YYY=              0.0424  ZZZ=              0.0000  XYY=              4.5838
  XXY=             -1.6839  XXZ=              0.0000  XZZ=             10.2636  YZZ=             -0.5341
  YYZ=              0.0000  XYZ=             -0.0000
 Hexadecapole moment (field-independent basis, Debye-Ang**3):
 XXXX=           -294.4178 YYYY=            -58.6527 ZZZZ=            -39.0750 XXXY=             -4.5479
 XXXZ=             -0.0001 YYYX=             -1.8356 YYYZ=              0.0000 ZZZX=             -0.0000
 ZZZY=              0.0000 XXYY=            -62.7785 XXZZ=            -67.8755 YYZZ=            -17.9781
 XXYZ=              0.0000 YYXZ=             -0.0000 ZZXY=             -0.4618
 N-N= 1.438315168386D+02 E-N=-6.621622401600D+03  KE= 2.648752373020D+03
  Exact polarizability:  64.651   2.733  38.898  -0.000   0.000  29.276
 Approx polarizability:  92.117   4.899  58.710   0.000  -0.000  42.534

 **********************************************************************

            Electrostatic Properties Using The SCF Density.

 **********************************************************************

       Atomic Center    1 is at   0.728401 -0.045126  0.000000
       Atomic Center    2 is at  -1.089685  0.529480 -0.000001
       Atomic Center    3 is at  -2.111806 -0.314514 -0.000000
       Atomic Center    4 is at  -1.977653 -1.390195 -0.000000
       Atomic Center    5 is at  -1.180528  1.608288  0.000001
       Atomic Center    6 is at  -3.126906  0.071512  0.000003
 -----------------------------------------------------------------

              Electrostatic Properties (Atomic Units)

 -----------------------------------------------------------------
    Center     Electric         -------- Electric Field --------
               Potential          X             Y             Z
 -----------------------------------------------------------------
    1 Atom   -175.825973      0.028715     -0.008547      0.000000
    2 Atom    -14.710286     -0.016348     -0.006666     -0.000000
    3 Atom    -14.754635      0.010942      0.008518      0.000000
    4 Atom     -1.091434      0.002388     -0.021040     -0.000000
    5 Atom     -1.080213     -0.002362      0.022233     -0.000000
    6 Atom     -1.089111     -0.018773      0.007067     -0.000000
 -----------------------------------------------------------------
 -----------------------------------------------------
    Center         ---- Electric Field Gradient ----
                     XX            YY            ZZ
 -----------------------------------------------------
    1 Atom    ************  ************  ************
    2 Atom     -511.558830   -511.153411   -511.526526
    3 Atom     -511.026883   -511.029096   -511.475212
    4 Atom       -1.691995     -2.141294     -1.676191
    5 Atom       -1.700810     -2.153594     -1.680999
    6 Atom       -2.086292     -1.742347     -1.673159
 -----------------------------------------------------
 -----------------------------------------------------
    Center         ---- Electric Field Gradient ----
                     XY            XZ            YZ
 -----------------------------------------------------
    1 Atom        3.313588      0.000002      0.000000
    2 Atom        0.271257     -0.000000     -0.000000
    3 Atom        0.052165     -0.000000      0.000000
    4 Atom        0.054429      0.000000     -0.000000
    5 Atom        0.035661      0.000000     -0.000001
    6 Atom        0.153164      0.000001     -0.000000
 -----------------------------------------------------
 -----------------------------------------------------
    Center         ---- Electric Field Gradient ----
                   ----       Eigenvalues       ----
 -----------------------------------------------------
    1 Atom    ************  ************  ************
    2 Atom     -511.694752   -511.526526   -511.017489
    3 Atom     -511.475212   -511.080166   -510.975813
    4 Atom       -2.147793     -1.685495     -1.676191
    5 Atom       -2.156385     -1.698019     -1.680999
    6 Atom       -2.144610     -1.684029     -1.673159
 -----------------------------------------------------
 -----------------------------------------------------
    Center         ---- Electric Field Gradient ----
                       ( tensor representation )
                   3XX-RR        3YY-RR        3ZZ-RR
 -----------------------------------------------------
    1 Atom       -6.362222      2.951848      3.410375
    2 Atom       -0.145908      0.259512     -0.113604
    3 Atom        0.150181      0.147967     -0.298148
    4 Atom        0.144498     -0.304801      0.160302
    5 Atom        0.144324     -0.308459      0.164135
    6 Atom       -0.252359      0.091586      0.160773
 -----------------------------------------------------
 -----------------------------------------------------
    Center         ---- Electric Field Gradient ----
                       ( tensor representation )
                   ----       Eigenvalues       ----
 -----------------------------------------------------
    1 Atom       -7.420766      3.410375      4.010392
    2 Atom       -0.281830     -0.113604      0.395433
    3 Atom       -0.298148      0.096897      0.201251
    4 Atom       -0.311300      0.150998      0.160302
    5 Atom       -0.311251      0.147115      0.164135
    6 Atom       -0.310677      0.149904      0.160773
 -----------------------------------------------------

 ----------------------------------------------------------------------

 Electric dipole moment (input orientation):
 (Debye = 10**-18 statcoulomb cm , SI units = C m)
                  (au)            (Debye)         (10**-30 SI)
   Tot        0.551895D+00      0.140278D+01      0.467916D+01
   x          0.343764D+00      0.873761D+00      0.291455D+01
   y          0.429850D+00      0.109257D+01      0.364442D+01
   z          0.405387D-01      0.103039D+00      0.343702D+00

 Dipole polarizability, Alpha (input orientation).
 (esu units = cm**3 , SI units = C**2 m**2 J**-1)
 Alpha(0;0):
               (au)            (10**-24 esu)      (10**-40 SI)
   iso        0.442749D+02      0.656086D+01      0.729994D+01
   aniso      0.320309D+02      0.474649D+01      0.528118D+01
   xx         0.569449D+02      0.843836D+01      0.938894D+01
   yx         0.119765D+02      0.177474D+01      0.197466D+01
   yy         0.464267D+02      0.687972D+01      0.765472D+01
   zx         0.193983D+01      0.287453D+00      0.319834D+00
   zy         0.153960D+01      0.228145D+00      0.253846D+00
   zz         0.294531D+02      0.436450D+01      0.485616D+01

 First dipole hyperpolarizability, Beta (input orientation).
 ||, _|_  parallel and perpendicular components, (z) with respect to z axis,
 vector components x,y,z.  Values do not include the 1/n! factor of 1/2.
 (esu units = statvolt**-1 cm**4 , SI units = C**3 m**3 J**-2)
 Beta(0;0,0):
               (au)            (10**-30 esu)      (10**-50 SI)
   || (z)     0.503894D+01      0.435325D-01      0.161567D-01
   _|_(z)     0.167965D+01      0.145108D-01      0.538556D-02
   x          0.308722D+03      0.266712D+01      0.989875D+00
   y          0.194321D+03      0.167878D+01      0.623064D+00
   z          0.251947D+02      0.217663D+00      0.807833D-01
   ||         0.731313D+02      0.631798D+00      0.234486D+00
   xxx        0.684470D+02      0.591328D+00      0.219466D+00
   xxy        0.306873D+02      0.265114D+00      0.983944D-01
   yxy        0.230138D+02      0.198821D+00      0.737906D-01
   yyy        0.277863D+02      0.240052D+00      0.890931D-01
   xxz        0.385683D+01      0.333200D-01      0.123664D-01
   yxz        0.178931D+01      0.154583D-01      0.573718D-02
   yyz        0.193580D+01      0.167238D-01      0.620688D-02
   zxz        0.114466D+02      0.988901D-01      0.367021D-01
   zyz        0.630010D+01      0.544279D-01      0.202004D-01
   zzz        0.260560D+01      0.225104D-01      0.835451D-02

 ----------------------------------------------------------------------

 Dipole orientation:
    35         -0.61600780          0.20895184         -4.32121017
     6         -0.88149565          0.42058356         -0.73404950
     6          0.65520049         -0.80446704          0.81913333
     1          2.16751626         -2.01007549          0.14406189
     1         -2.41177727          1.64051822         -0.13775182
     1          0.41277849         -0.61120842          2.84786669

 Electric dipole moment (dipole orientation):
 (Debye = 10**-18 statcoulomb cm , SI units = C m)
                  (au)            (Debye)         (10**-30 SI)
   Tot        0.551895D+00      0.140278D+01      0.467916D+01
   x          0.000000D+00      0.000000D+00      0.000000D+00
   y          0.000000D+00      0.000000D+00      0.000000D+00
   z          0.551895D+00      0.140278D+01      0.467916D+01

 Dipole polarizability, Alpha (dipole orientation).
 (esu units = cm**3 , SI units = C**2 m**2 J**-1)
 Alpha(0;0):
               (au)            (10**-24 esu)      (10**-40 SI)
   iso        0.442749D+02      0.656086D+01      0.729994D+01
   aniso      0.320309D+02      0.474649D+01      0.528118D+01
   xx         0.365412D+02      0.541485D+01      0.602484D+01
   yx        -0.579172D+01     -0.858244D+00     -0.954926D+00
   yy         0.338933D+02      0.502247D+01      0.558825D+01
   zx         0.608576D+01      0.901817D+00      0.100341D+01
   zy        -0.485165D+01     -0.718940D+00     -0.799929D+00
   zz         0.623901D+02      0.924526D+01      0.102867D+02

 First dipole hyperpolarizability, Beta (dipole orientation).
 ||, _|_  parallel and perpendicular components, (z) with respect to z axis,
 vector components x,y,z.  Values do not include the 1/n! factor of 1/2.
 (esu units = statvolt**-1 cm**4 , SI units = C**3 m**3 J**-2)
 Beta(0;0,0):
               (au)            (10**-30 esu)      (10**-50 SI)
   || (z)     0.690993D+02      0.596964D+00      0.221557D+00
   _|_(z)     0.230331D+02      0.198988D+00      0.738525D-01
   x          0.936259D+02      0.808855D+00      0.300198D+00
   y         -0.746401D+02     -0.644832D+00     -0.239323D+00
   z          0.345497D+03      0.298482D+01      0.110779D+01
   ||         0.731313D+02      0.631798D+00      0.234486D+00
   xxx        0.101133D+02      0.873711D-01      0.324269D-01
   xxy       -0.194423D+01     -0.167967D-01     -0.623391D-02
   yxy        0.294849D+01      0.254727D-01      0.945393D-02
   yyy       -0.846892D+01     -0.731648D-01     -0.271544D-01
   xxz        0.159621D+02      0.137900D+00      0.511803D-01
   yxz       -0.328621D+01     -0.283903D-01     -0.105368D-01
   yyz        0.144599D+02      0.124922D+00      0.463636D-01
   zxz        0.181468D+02      0.156774D+00      0.581853D-01
   zyz       -0.144669D+02     -0.124983D+00     -0.463861D-01
   zzz        0.847435D+02      0.732118D+00      0.271718D+00

 ----------------------------------------------------------------------
 1\1\GINC-NOTCH141\SP\RM06\def2TZVP\C2H3Br1\U6029223\13-Feb-2021\0\\# M
 06/def2TZVP int=(grid=ultrafine) polar prop=(efg) guess=read geom=chec
 k\\1_1.xyz\\0,1\Br,0,-1.6824606118,-1.5856043399,-0.0510417882\C,0,-0.
 6404099324,0.00506164,0.0886742912\C,0,0.6837940452,-0.0042172058,0.14
 74427474\H,0,1.2606471173,-0.9215795208,0.1196218253\H,0,-1.2527250653
 ,0.8975504252,0.113450426\H,0,1.2243544471,0.9343890014,0.2265524983\\
 Version=ES64L-G16RevB.01\State=1-A\HF=-2652.0160197\RMSD=1.168e-09\Dip
 ole=0.3437641,0.4298502,0.0405387\Polar=56.9448914,11.9765301,46.42665
 58,1.9398278,1.5396017,29.4530756\HyperPolar=68.4469542,30.6872525,23.
 0137974,27.7863457,3.8568298,1.7893118,1.9358012,11.446648,6.3000988,2
 .6056045\Quadrupole=0.8761967,1.4609233,-2.33712,0.764228,0.1896788,0.
 2577592\PG=C01 [X(C2H3Br1)]\\@


 ABALONE: AN EXPRESSION OF DISBELIEF.
 Job cpu time:       0 days  0 hours  4 minutes 48.3 seconds.
 Elapsed time:       0 days  0 hours  0 minutes  7.4 seconds.
 File lengths (MBytes):  RWF=     12 Int=      0 D2E=      0 Chk=      3 Scr=      1
 Normal termination of Gaussian 16 at Sat Feb 13 09:36:10 2021.
