 Entering Gaussian System, Link 0=/uufs/chpc.utah.edu/sys/installdir/gaussian16/B01/E6B/g16/g16
 Input=2_1.com
 Output=2_1.log
 Initial command:
 /uufs/chpc.utah.edu/sys/installdir/gaussian16/B01/E6B/g16/l1.exe "/scratch/general/lustre/u6029223/2065860/notchpeak.peaks/Gau-429850.inp" -scrdir="/scratch/general/lustre/u6029223/2065860/notchpeak.peaks/"
 Entering Link 1 = /uufs/chpc.utah.edu/sys/installdir/gaussian16/B01/E6B/g16/l1.exe PID=    429852.
  
 Copyright (c) 1988-2017, Gaussian, Inc.  All Rights Reserved.
  
 This is part of the Gaussian(R) 16 program.  It is based on
 the Gaussian(R) 09 system (copyright 2009, Gaussian, Inc.),
 the Gaussian(R) 03 system (copyright 2003, Gaussian, Inc.),
 the Gaussian(R) 98 system (copyright 1998, Gaussian, Inc.),
 the Gaussian(R) 94 system (copyright 1995, Gaussian, Inc.),
 the Gaussian 92(TM) system (copyright 1992, Gaussian, Inc.),
 the Gaussian 90(TM) system (copyright 1990, Gaussian, Inc.),
 the Gaussian 88(TM) system (copyright 1988, Gaussian, Inc.),
 the Gaussian 86(TM) system (copyright 1986, Carnegie Mellon
 University), and the Gaussian 82(TM) system (copyright 1983,
 Carnegie Mellon University). Gaussian is a federally registered
 trademark of Gaussian, Inc.
  
 This software contains proprietary and confidential information,
 including trade secrets, belonging to Gaussian, Inc.
  
 This software is provided under written license and may be
 used, copied, transmitted, or stored only in accord with that
 written license.
  
 The following legend is applicable only to US Government
 contracts under FAR:
  
                    RESTRICTED RIGHTS LEGEND
  
 Use, reproduction and disclosure by the US Government is
 subject to restrictions as set forth in subparagraphs (a)
 and (c) of the Commercial Computer Software - Restricted
 Rights clause in FAR 52.227-19.
  
 Gaussian, Inc.
 340 Quinnipiac St., Bldg. 40, Wallingford CT 06492
  
  
 ---------------------------------------------------------------
 Warning -- This program may not be used in any manner that
 competes with the business of Gaussian, Inc. or will provide
 assistance to any competitor of Gaussian, Inc.  The licensee
 of this program is prohibited from giving any competitor of
 Gaussian, Inc. access to this program.  By using this program,
 the user acknowledges that Gaussian, Inc. is engaged in the
 business of creating and licensing software in the field of
 computational chemistry and represents and warrants to the
 licensee that it is not a competitor of Gaussian, Inc. and that
 it will not use this program in any manner prohibited above.
 ---------------------------------------------------------------
  

 Cite this work as:
 Gaussian 16, Revision B.01,
 M. J. Frisch, G. W. Trucks, H. B. Schlegel, G. E. Scuseria, 
 M. A. Robb, J. R. Cheeseman, G. Scalmani, V. Barone, 
 G. A. Petersson, H. Nakatsuji, X. Li, M. Caricato, A. V. Marenich, 
 J. Bloino, B. G. Janesko, R. Gomperts, B. Mennucci, H. P. Hratchian, 
 J. V. Ortiz, A. F. Izmaylov, J. L. Sonnenberg, D. Williams-Young, 
 F. Ding, F. Lipparini, F. Egidi, J. Goings, B. Peng, A. Petrone, 
 T. Henderson, D. Ranasinghe, V. G. Zakrzewski, J. Gao, N. Rega, 
 G. Zheng, W. Liang, M. Hada, M. Ehara, K. Toyota, R. Fukuda, 
 J. Hasegawa, M. Ishida, T. Nakajima, Y. Honda, O. Kitao, H. Nakai, 
 T. Vreven, K. Throssell, J. A. Montgomery, Jr., J. E. Peralta, 
 F. Ogliaro, M. J. Bearpark, J. J. Heyd, E. N. Brothers, K. N. Kudin, 
 V. N. Staroverov, T. A. Keith, R. Kobayashi, J. Normand, 
 K. Raghavachari, A. P. Rendell, J. C. Burant, S. S. Iyengar, 
 J. Tomasi, M. Cossi, J. M. Millam, M. Klene, C. Adamo, R. Cammi, 
 J. W. Ochterski, R. L. Martin, K. Morokuma, O. Farkas, 
 J. B. Foresman, and D. J. Fox, Gaussian, Inc., Wallingford CT, 2016.
 
 ******************************************
 Gaussian 16:  ES64L-G16RevB.01 20-Dec-2017
                13-Feb-2021 
 ******************************************
 %NProcShared=52
 Will use up to   52 processors via shared memory.
 %mem=16GB
 %chk=2_1.chk
 ----------------------------------------------------------------------
 # B3LYP/6-31G(d,p) empiricaldispersion=GD3BJ int=(grid=fine) opt freq=
 noraman
 ----------------------------------------------------------------------
 1/18=20,19=15,26=3,38=1/1,3;
 2/9=110,12=2,17=6,18=5,40=1/2;
 3/5=1,6=6,7=101,11=2,25=1,30=1,71=1,74=-5,75=-4,124=41/1,2,3;
 4//1;
 5/5=2,38=5/2;
 6/7=2,8=2,9=2,10=2,28=1/1;
 7//1,2,3,16;
 1/18=20,19=15,26=3/3(2);
 2/9=110/2;
 99//99;
 2/9=110/2;
 3/5=1,6=6,7=101,11=2,25=1,30=1,71=1,74=-5,75=-4,124=41/1,2,3;
 4/5=5,16=3,69=1/1;
 5/5=2,38=5/2;
 7//1,2,3,16;
 1/18=20,19=15,26=3/3(-5);
 2/9=110/2;
 6/7=2,8=2,9=2,10=2,19=2,28=1/1;
 99/9=1/99;
 -------
 2_1.xyz
 -------
 Symbolic Z-matrix:
 Charge =  0 Multiplicity = 1
 Br                   -1.6689   -1.6946    0.2359 
 C                    -0.6642   -0.0043    0.3709 
 C                     0.6346    0.0584    0.0405 
 H                     1.1305   -0.8392   -0.3048 
 H                    -1.2547    0.8288    0.726 
 C                     1.4805    1.3128    0.1141 
 H                     2.3187    1.1633    0.7953 
 H                     1.8756    1.5599   -0.8717 
 H                     0.9038    2.1675    0.4707 
 

 GradGradGradGradGradGradGradGradGradGradGradGradGradGradGradGradGradGrad
 Berny optimization.
 Initialization pass.
                           ----------------------------
                           !    Initial Parameters    !
                           ! (Angstroms and Degrees)  !
 --------------------------                            --------------------------
 ! Name  Definition              Value          Derivative Info.                !
 --------------------------------------------------------------------------------
 ! R1    R(1,2)                  1.971          estimate D2E/DX2                !
 ! R2    R(2,3)                  1.3416         estimate D2E/DX2                !
 ! R3    R(2,5)                  1.0811         estimate D2E/DX2                !
 ! R4    R(3,4)                  1.0821         estimate D2E/DX2                !
 ! R5    R(3,6)                  1.5148         estimate D2E/DX2                !
 ! R6    R(6,7)                  1.0904         estimate D2E/DX2                !
 ! R7    R(6,8)                  1.0904         estimate D2E/DX2                !
 ! R8    R(6,9)                  1.091          estimate D2E/DX2                !
 ! A1    A(1,2,3)              121.1101         estimate D2E/DX2                !
 ! A2    A(1,2,5)              113.8865         estimate D2E/DX2                !
 ! A3    A(3,2,5)              125.0034         estimate D2E/DX2                !
 ! A4    A(2,3,4)              118.9133         estimate D2E/DX2                !
 ! A5    A(2,3,6)              124.5655         estimate D2E/DX2                !
 ! A6    A(4,3,6)              116.5213         estimate D2E/DX2                !
 ! A7    A(3,6,7)              110.2486         estimate D2E/DX2                !
 ! A8    A(3,6,8)              110.248          estimate D2E/DX2                !
 ! A9    A(3,6,9)              111.6819         estimate D2E/DX2                !
 ! A10   A(7,6,8)              108.5016         estimate D2E/DX2                !
 ! A11   A(7,6,9)              108.0325         estimate D2E/DX2                !
 ! A12   A(8,6,9)              108.0296         estimate D2E/DX2                !
 ! D1    D(1,2,3,4)             -0.0049         estimate D2E/DX2                !
 ! D2    D(1,2,3,6)           -179.9965         estimate D2E/DX2                !
 ! D3    D(5,2,3,4)           -179.9992         estimate D2E/DX2                !
 ! D4    D(5,2,3,6)              0.0091         estimate D2E/DX2                !
 ! D5    D(2,3,6,7)            120.1083         estimate D2E/DX2                !
 ! D6    D(2,3,6,8)           -120.1171         estimate D2E/DX2                !
 ! D7    D(2,3,6,9)             -0.0064         estimate D2E/DX2                !
 ! D8    D(4,3,6,7)            -59.8835         estimate D2E/DX2                !
 ! D9    D(4,3,6,8)             59.8911         estimate D2E/DX2                !
 ! D10   D(4,3,6,9)           -179.9983         estimate D2E/DX2                !
 --------------------------------------------------------------------------------
 Trust Radius=3.00D-01 FncErr=1.00D-07 GrdErr=1.00D-06 EigMax=2.50D+02 EigMin=1.00D-04
 Number of steps in this run=     40 maximum allowed number of steps=    100.
 GradGradGradGradGradGradGradGradGradGradGradGradGradGradGradGradGradGrad

                          Input orientation:                          
 ---------------------------------------------------------------------
 Center     Atomic      Atomic             Coordinates (Angstroms)
 Number     Number       Type             X           Y           Z
 ---------------------------------------------------------------------
      1         35           0       -1.668900   -1.694600    0.235900
      2          6           0       -0.664200   -0.004300    0.370900
      3          6           0        0.634600    0.058400    0.040500
      4          1           0        1.130500   -0.839200   -0.304800
      5          1           0       -1.254700    0.828800    0.726000
      6          6           0        1.480500    1.312800    0.114100
      7          1           0        2.318700    1.163300    0.795300
      8          1           0        1.875600    1.559900   -0.871700
      9          1           0        0.903800    2.167500    0.470700
 ---------------------------------------------------------------------
                    Distance matrix (angstroms):
                    1          2          3          4          5
     1  Br   0.000000
     2  C    1.970980   0.000000
     3  C    2.901259   1.341632   0.000000
     4  H    2.976694   2.091549   1.082051   0.000000
     5  H    2.603710   1.081130   2.152413   3.087710   0.000000
     6  C    4.356376   2.529908   1.514755   2.220153   2.844292
     7  H    4.937760   3.231269   2.150981   2.575276   3.589691
     8  H    4.937816   3.231309   2.150975   2.575312   3.589698
     9  H    4.646475   2.680541   2.169296   3.113364   2.552728
                    6          7          8          9
     6  C    0.000000
     7  H    1.090396   0.000000
     8  H    1.090396   1.769892   0.000000
     9  H    1.090990   1.765142   1.765109   0.000000
 Stoichiometry    C3H5Br
 Framework group  C1[X(C3H5Br)]
 Deg. of freedom    21
 Full point group                 C1      NOp   1
 Largest Abelian subgroup         C1      NOp   1
 Largest concise Abelian subgroup C1      NOp   1
                         Standard orientation:                         
 ---------------------------------------------------------------------
 Center     Atomic      Atomic             Coordinates (Angstroms)
 Number     Number       Type             X           Y           Z
 ---------------------------------------------------------------------
      1         35           0       -1.268966   -0.041527    0.000003
      2          6           0        0.615758    0.535167    0.000001
      3          6           0        1.614715   -0.360412   -0.000048
      4          1           0        1.371979   -1.414886   -0.000006
      5          1           0        0.745141    1.608527   -0.000045
      6          6           0        3.087259   -0.005313    0.000022
      7          1           0        3.574401   -0.415798    0.884984
      8          1           0        3.574472   -0.415783   -0.884908
      9          1           0        3.241434    1.074728    0.000005
 ---------------------------------------------------------------------
 Rotational constants (GHZ):          39.3538460           1.6147468           1.5662793
 Standard basis: 6-31G(d,p) (6D, 7F)
 There are   100 symmetry adapted cartesian basis functions of A   symmetry.
 There are   100 symmetry adapted basis functions of A   symmetry.
   100 basis functions,   202 primitive gaussians,   100 cartesian basis functions
    29 alpha electrons       29 beta electrons
       nuclear repulsion energy       209.1864517617 Hartrees.
 NAtoms=    9 NActive=    9 NUniq=    9 SFac= 1.00D+00 NAtFMM=   60 NAOKFM=F Big=F
 Integral buffers will be    131072 words long.
 Raffenetti 2 integral format.
 Two-electron integral symmetry is turned on.
 Nuclear repulsion after empirical dispersion term =      209.1751711523 Hartrees.
 One-electron integrals computed using PRISM.
 NBasis=   100 RedAO= T EigKep=  7.55D-04  NBF=   100
 NBsUse=   100 1.00D-06 EigRej= -1.00D+00 NBFU=   100
 ExpMin= 1.43D-01 ExpMax= 5.74D+05 ExpMxC= 5.74D+03 IAcc=2 IRadAn=         4 AccDes= 0.00D+00
 Harris functional with IExCor=  402 and IRadAn=       4 diagonalized for initial guess.
 HarFok:  IExCor=  402 AccDes= 0.00D+00 IRadAn=         4 IDoV= 1 UseB2=F ITyADJ=14
 ICtDFT=  3500011 ScaDFX=  1.000000  1.000000  1.000000  1.000000
 FoFCou: FMM=F IPFlag=           0 FMFlag=      100000 FMFlg1=           0
         NFxFlg=           0 DoJE=T BraDBF=F KetDBF=T FulRan=T
         wScrn=  0.000000 ICntrl=       500 IOpCl=  0 I1Cent=   200000004 NGrid=           0
         NMat0=    1 NMatS0=      1 NMatT0=    0 NMatD0=    1 NMtDS0=    0 NMtDT0=    0
 Petite list used in FoFCou.
 Keep R1 ints in memory in canonical form, NReq=60807049.
 Requested convergence on RMS density matrix=1.00D-08 within 128 cycles.
 Requested convergence on MAX density matrix=1.00D-06.
 Requested convergence on             energy=1.00D-06.
 No special actions if energy rises.
 Integral accuracy reduced to 1.0D-05 until final iterations.
 EnCoef did   100 forward-backward iterations
 Initial convergence to 1.0D-05 achieved.  Increase integral accuracy.
 SCF Done:  E(RB3LYP) =  -2689.02987771     A.U. after   14 cycles
            NFock= 14  Conv=0.59D-08     -V/T= 2.0063

 **********************************************************************

            Population analysis using the SCF Density.

 **********************************************************************

 Orbital symmetries:
       Occupied  (A) (A) (A) (A) (A) (A) (A) (A) (A) (A) (A) (A)
                 (A) (A) (A) (A) (A) (A) (A) (A) (A) (A) (A) (A)
                 (A) (A) (A) (A) (A)
       Virtual   (A) (A) (A) (A) (A) (A) (A) (A) (A) (A) (A) (A)
                 (A) (A) (A) (A) (A) (A) (A) (A) (A) (A) (A) (A)
                 (A) (A) (A) (A) (A) (A) (A) (A) (A) (A) (A) (A)
                 (A) (A) (A) (A) (A) (A) (A) (A) (A) (A) (A) (A)
                 (A) (A) (A) (A) (A) (A) (A) (A) (A) (A) (A) (A)
                 (A) (A) (A) (A) (A) (A) (A) (A) (A) (A) (A)
 The electronic state is 1-A.
 Alpha  occ. eigenvalues -- -482.90234 -61.86468 -56.38568 -56.38186 -56.38181
 Alpha  occ. eigenvalues --  -10.24214 -10.21036 -10.19862  -8.57625  -6.53019
 Alpha  occ. eigenvalues --   -6.51753  -6.51725  -2.64583  -2.64230  -2.64210
 Alpha  occ. eigenvalues --   -2.63200  -2.63199  -0.81718  -0.75908  -0.67743
 Alpha  occ. eigenvalues --   -0.56893  -0.45664  -0.44459  -0.42823  -0.38317
 Alpha  occ. eigenvalues --   -0.35596  -0.32043  -0.27945  -0.24407
 Alpha virt. eigenvalues --   -0.00118   0.00296   0.11393   0.12077   0.15469
 Alpha virt. eigenvalues --    0.16376   0.16420   0.25332   0.27431   0.34668
 Alpha virt. eigenvalues --    0.42217   0.46416   0.46620   0.47673   0.47877
 Alpha virt. eigenvalues --    0.50295   0.50640   0.52526   0.54345   0.57476
 Alpha virt. eigenvalues --    0.63767   0.67840   0.67869   0.73923   0.74727
 Alpha virt. eigenvalues --    0.82478   0.85447   0.85538   0.85968   0.89026
 Alpha virt. eigenvalues --    0.89981   0.92317   1.12672   1.23125   1.28400
 Alpha virt. eigenvalues --    1.31818   1.40634   1.55602   1.59739   1.61646
 Alpha virt. eigenvalues --    1.80272   1.82019   1.88113   1.94499   2.03142
 Alpha virt. eigenvalues --    2.05643   2.06500   2.11060   2.16775   2.21725
 Alpha virt. eigenvalues --    2.35669   2.40251   2.47867   2.51561   2.53614
 Alpha virt. eigenvalues --    2.58359   2.66453   2.78610   2.83361   2.86381
 Alpha virt. eigenvalues --    2.92360   3.18331   3.38379   3.41799   3.43139
 Alpha virt. eigenvalues --    3.48985   4.14738   4.32195   4.54899   8.60604
 Alpha virt. eigenvalues --   72.62684
          Condensed to atoms (all electrons):
               1          2          3          4          5          6
     1  Br  34.958082   0.263856  -0.050420  -0.004240  -0.043150   0.003975
     2  C    0.263856   4.908480   0.646375  -0.042014   0.378846  -0.033323
     3  C   -0.050420   0.646375   4.824344   0.383497  -0.043560   0.365162
     4  H   -0.004240  -0.042014   0.383497   0.587898   0.005343  -0.047526
     5  H   -0.043150   0.378846  -0.043560   0.005343   0.571085  -0.006728
     6  C    0.003975  -0.033323   0.365162  -0.047526  -0.006728   4.926613
     7  H   -0.000084  -0.000213  -0.031778  -0.001413   0.000064   0.380628
     8  H   -0.000084  -0.000212  -0.031779  -0.001412   0.000064   0.380623
     9  H    0.000012  -0.006441  -0.033689   0.004377   0.005004   0.385369
               7          8          9
     1  Br  -0.000084  -0.000084   0.000012
     2  C   -0.000213  -0.000212  -0.006441
     3  C   -0.031778  -0.031779  -0.033689
     4  H   -0.001413  -0.001412   0.004377
     5  H    0.000064   0.000064   0.005004
     6  C    0.380628   0.380623   0.385369
     7  H    0.585431  -0.033655  -0.029148
     8  H   -0.033655   0.585442  -0.029151
     9  H   -0.029148  -0.029151   0.586281
 Mulliken charges:
               1
     1  Br  -0.127946
     2  C   -0.115353
     3  C   -0.028151
     4  H    0.115491
     5  H    0.133032
     6  C   -0.354792
     7  H    0.130168
     8  H    0.130165
     9  H    0.117387
 Sum of Mulliken charges =  -0.00000
 Mulliken charges with hydrogens summed into heavy atoms:
               1
     1  Br  -0.127946
     2  C    0.017679
     3  C    0.087340
     6  C    0.022927
 Electronic spatial extent (au):  <R**2>=            722.7898
 Charge=             -0.0000 electrons
 Dipole moment (field-independent basis, Debye):
    X=              2.1950    Y=              0.1902    Z=              0.0000  Tot=              2.2033
 Quadrupole moment (field-independent basis, Debye-Ang):
   XX=            -32.9649   YY=            -35.1505   ZZ=            -38.6312
   XY=              0.2322   XZ=              0.0000   YZ=             -0.0001
 Traceless Quadrupole moment (field-independent basis, Debye-Ang):
   XX=              2.6173   YY=              0.4317   ZZ=             -3.0490
   XY=              0.2322   XZ=              0.0000   YZ=             -0.0001
 Octapole moment (field-independent basis, Debye-Ang**2):
  XXX=            -31.7689  YYY=              0.5317  ZZZ=              0.0003  XYY=            -10.0704
  XXY=             -3.3657  XXZ=              0.0002  XZZ=            -12.5223  YZZ=             -1.0947
  YYZ=             -0.0000  XYZ=             -0.0003
 Hexadecapole moment (field-independent basis, Debye-Ang**3):
 XXXX=           -719.3949 YYYY=            -71.3492 ZZZZ=            -48.3053 XXXY=              1.7912
 XXXZ=              0.0001 YYYX=              4.0185 YYYZ=             -0.0004 ZZZX=              0.0003
 ZZZY=             -0.0002 XXYY=           -137.3758 XXZZ=           -133.2448 YYZZ=            -21.6800
 XXYZ=             -0.0007 YYXZ=             -0.0001 ZZXY=             -1.2254
 N-N= 2.091751711523D+02 E-N=-6.823301468482D+03  KE= 2.672071972418D+03
 Calling FoFJK, ICntrl=      2127 FMM=F ISym2X=0 I1Cent= 0 IOpClX= 0 NMat=1 NMatS=1 NMatT=0.
 ***** Axes restored to original set *****
 -------------------------------------------------------------------
 Center     Atomic                   Forces (Hartrees/Bohr)
 Number     Number              X              Y              Z
 -------------------------------------------------------------------
      1       35           0.008853799    0.017466998    0.001801474
      2        6           0.011484427   -0.012799360   -0.006105342
      3        6          -0.012558998    0.004540076    0.004431227
      4        1           0.001224829   -0.003379192   -0.001132005
      5        1          -0.002871175   -0.001018165    0.000523580
      6        6          -0.011303440   -0.006053490    0.001556112
      7        1           0.003624178   -0.000390087    0.000820221
      8        1           0.002741992    0.000400629   -0.002509201
      9        1          -0.001195612    0.001232590    0.000613933
 -------------------------------------------------------------------
 Cartesian Forces:  Max     0.017466998 RMS     0.006496574

 GradGradGradGradGradGradGradGradGradGradGradGradGradGradGradGradGradGrad
 Berny optimization.
 FormGI is forming the generalized inverse of G from B-inverse, IUseBI=4.
 Internal  Forces:  Max     0.019610746 RMS     0.005364102
 Search for a local minimum.
 Step number   1 out of a maximum of   40
 All quantities printed in internal units (Hartrees-Bohrs-Radians)
 Mixed Optimization -- RFO/linear search
 Second derivative matrix not updated -- first step.
 ITU=  0
     Eigenvalues ---    0.00571   0.01511   0.02861   0.02861   0.07102
     Eigenvalues ---    0.07254   0.15180   0.16000   0.16000   0.16000
     Eigenvalues ---    0.16000   0.16000   0.22000   0.22000   0.30877
     Eigenvalues ---    0.34699   0.34767   0.34767   0.35748   0.35858
     Eigenvalues ---    0.56841
 RFO step:  Lambda=-3.65447826D-03 EMin= 5.70765329D-03
 Linear search not attempted -- first point.
 Iteration  1 RMS(Cart)=  0.03250421 RMS(Int)=  0.00015931
 Iteration  2 RMS(Cart)=  0.00026181 RMS(Int)=  0.00000466
 Iteration  3 RMS(Cart)=  0.00000005 RMS(Int)=  0.00000466
 Variable       Old X    -DE/DX   Delta X   Delta X   Delta X     New X
                                 (Linear)    (Quad)   (Total)
    R1        3.72461  -0.01961   0.00000  -0.12615  -0.12615   3.59846
    R2        2.53532  -0.01803   0.00000  -0.03151  -0.03151   2.50381
    R3        2.04304   0.00095   0.00000   0.00261   0.00261   2.04565
    R4        2.04478   0.00373   0.00000   0.01032   0.01032   2.05510
    R5        2.86247  -0.00738   0.00000  -0.02361  -0.02361   2.83887
    R6        2.06055   0.00335   0.00000   0.00953   0.00953   2.07008
    R7        2.06055   0.00335   0.00000   0.00954   0.00954   2.07009
    R8        2.06167   0.00181   0.00000   0.00515   0.00515   2.06682
    A1        2.11377   0.00140   0.00000   0.00625   0.00625   2.12002
    A2        1.98769  -0.00371   0.00000  -0.02153  -0.02153   1.96616
    A3        2.18172   0.00231   0.00000   0.01528   0.01528   2.19700
    A4        2.07543   0.00172   0.00000   0.00677   0.00677   2.08220
    A5        2.17408  -0.00458   0.00000  -0.02048  -0.02048   2.15360
    A6        2.03368   0.00286   0.00000   0.01371   0.01371   2.04739
    A7        1.92420   0.00061   0.00000   0.00223   0.00223   1.92643
    A8        1.92419   0.00061   0.00000   0.00226   0.00225   1.92644
    A9        1.94922  -0.00028   0.00000   0.00127   0.00126   1.95048
   A10        1.89371  -0.00168   0.00000  -0.01620  -0.01620   1.87751
   A11        1.88552   0.00034   0.00000   0.00496   0.00495   1.89047
   A12        1.88547   0.00034   0.00000   0.00500   0.00499   1.89046
    D1       -0.00009   0.00000   0.00000   0.00007   0.00007  -0.00001
    D2       -3.14153  -0.00000   0.00000  -0.00006  -0.00006  -3.14159
    D3       -3.14158  -0.00000   0.00000   0.00001   0.00000  -3.14157
    D4        0.00016  -0.00000   0.00000  -0.00013  -0.00013   0.00003
    D5        2.09628   0.00066   0.00000   0.00868   0.00868   2.10496
    D6       -2.09644  -0.00066   0.00000  -0.00857  -0.00858  -2.10502
    D7       -0.00011   0.00000   0.00000   0.00008   0.00008  -0.00003
    D8       -1.04516   0.00066   0.00000   0.00855   0.00855  -1.03662
    D9        1.04530  -0.00066   0.00000  -0.00870  -0.00871   1.03659
   D10       -3.14156   0.00000   0.00000  -0.00005  -0.00005   3.14158
         Item               Value     Threshold  Converged?
 Maximum Force            0.019611     0.000450     NO 
 RMS     Force            0.005364     0.000300     NO 
 Maximum Displacement     0.127994     0.001800     NO 
 RMS     Displacement     0.032523     0.001200     NO 
 Predicted change in Energy=-1.863428D-03
 GradGradGradGradGradGradGradGradGradGradGradGradGradGradGradGradGradGrad

                          Input orientation:                          
 ---------------------------------------------------------------------
 Center     Atomic      Atomic             Coordinates (Angstroms)
 Number     Number       Type             X           Y           Z
 ---------------------------------------------------------------------
      1         35           0       -1.635780   -1.626868    0.243173
      2          6           0       -0.644673   -0.005500    0.365417
      3          6           0        0.637866    0.047587    0.037105
      4          1           0        1.136197   -0.854569   -0.309973
      5          1           0       -1.243206    0.823175    0.721635
      6          6           0        1.460493    1.302067    0.116858
      7          1           0        2.308067    1.159833    0.796105
      8          1           0        1.865527    1.555889   -0.868797
      9          1           0        0.871412    2.150986    0.475376
 ---------------------------------------------------------------------
                    Distance matrix (angstroms):
                    1          2          3          4          5
     1  Br   0.000000
     2  C    1.904225   0.000000
     3  C    2.831207   1.324958   0.000000
     4  H    2.930234   2.085321   1.087512   0.000000
     5  H    2.527004   1.082513   2.146753   3.088786   0.000000
     6  C    4.263980   2.490630   1.502263   2.222258   2.811598
     7  H    4.860593   3.203461   2.145400   2.579632   3.567972
     8  H    4.860615   3.203487   2.145410   2.579635   3.567992
     9  H    4.540056   2.638377   2.161229   3.117730   2.509051
                    6          7          8          9
     6  C    0.000000
     7  H    1.095440   0.000000
     8  H    1.095442   1.767654   0.000000
     9  H    1.093716   1.774606   1.774600   0.000000
 Stoichiometry    C3H5Br
 Framework group  C1[X(C3H5Br)]
 Deg. of freedom    21
 Full point group                 C1      NOp   1
 Largest Abelian subgroup         C1      NOp   1
 Largest concise Abelian subgroup C1      NOp   1
                         Standard orientation:                         
 ---------------------------------------------------------------------
 Center     Atomic      Atomic             Coordinates (Angstroms)
 Number     Number       Type             X           Y           Z
 ---------------------------------------------------------------------
      1         35           0       -1.238460   -0.038512   -0.000000
      2          6           0        0.585033    0.510072    0.000005
      3          6           0        1.572936   -0.372855   -0.000004
      4          1           0        1.337796   -1.434642   -0.000003
      5          1           0        0.696482    1.586834   -0.000011
      6          6           0        3.025228    0.011389    0.000001
      7          1           0        3.527675   -0.396492    0.883839
      8          1           0        3.527700   -0.396513   -0.883815
      9          1           0        3.157275    1.097104   -0.000018
 ---------------------------------------------------------------------
 Rotational constants (GHZ):          40.0472555           1.6892311           1.6373988
 Standard basis: 6-31G(d,p) (6D, 7F)
 There are   100 symmetry adapted cartesian basis functions of A   symmetry.
 There are   100 symmetry adapted basis functions of A   symmetry.
   100 basis functions,   202 primitive gaussians,   100 cartesian basis functions
    29 alpha electrons       29 beta electrons
       nuclear repulsion energy       213.6108345959 Hartrees.
 NAtoms=    9 NActive=    9 NUniq=    9 SFac= 1.00D+00 NAtFMM=   60 NAOKFM=F Big=F
 Integral buffers will be    131072 words long.
 Raffenetti 2 integral format.
 Two-electron integral symmetry is turned on.
 Nuclear repulsion after empirical dispersion term =      213.5994182270 Hartrees.
 One-electron integrals computed using PRISM.
 NBasis=   100 RedAO= T EigKep=  7.55D-04  NBF=   100
 NBsUse=   100 1.00D-06 EigRej= -1.00D+00 NBFU=   100
 Initial guess from the checkpoint file:  "2_1.chk"
 B after Tr=     0.000000   -0.000000    0.000000
         Rot=    1.000000    0.000004   -0.000000   -0.000748 Ang=   0.09 deg.
 ExpMin= 1.43D-01 ExpMax= 5.74D+05 ExpMxC= 5.74D+03 IAcc=2 IRadAn=         4 AccDes= 0.00D+00
 Harris functional with IExCor=  402 and IRadAn=       4 diagonalized for initial guess.
 HarFok:  IExCor=  402 AccDes= 0.00D+00 IRadAn=         4 IDoV= 1 UseB2=F ITyADJ=14
 ICtDFT=  3500011 ScaDFX=  1.000000  1.000000  1.000000  1.000000
 FoFCou: FMM=F IPFlag=           0 FMFlag=      100000 FMFlg1=           0
         NFxFlg=           0 DoJE=T BraDBF=F KetDBF=T FulRan=T
         wScrn=  0.000000 ICntrl=       500 IOpCl=  0 I1Cent=   200000004 NGrid=           0
         NMat0=    1 NMatS0=      1 NMatT0=    0 NMatD0=    1 NMtDS0=    0 NMtDT0=    0
 Petite list used in FoFCou.
 Keep R1 ints in memory in canonical form, NReq=60807049.
 Requested convergence on RMS density matrix=1.00D-08 within 128 cycles.
 Requested convergence on MAX density matrix=1.00D-06.
 Requested convergence on             energy=1.00D-06.
 No special actions if energy rises.
 Integral accuracy reduced to 1.0D-05 until final iterations.
 Initial convergence to 1.0D-05 achieved.  Increase integral accuracy.
 SCF Done:  E(RB3LYP) =  -2689.03153078     A.U. after   12 cycles
            NFock= 12  Conv=0.51D-08     -V/T= 2.0063
 Calling FoFJK, ICntrl=      2127 FMM=F ISym2X=0 I1Cent= 0 IOpClX= 0 NMat=1 NMatS=1 NMatT=0.
 ***** Axes restored to original set *****
 -------------------------------------------------------------------
 Center     Atomic                   Forces (Hartrees/Bohr)
 Number     Number              X              Y              Z
 -------------------------------------------------------------------
      1       35          -0.002737947   -0.001908556    0.000274076
      2        6          -0.002960961   -0.002638728    0.000157419
      3        6           0.004354287    0.003712829   -0.000273744
      4        1          -0.000215093    0.000009508    0.000059523
      5        1           0.001104568    0.001057404   -0.000041213
      6        6          -0.001774402   -0.001374804    0.000143003
      7        1           0.000983583    0.000681226   -0.000237887
      8        1           0.001048381    0.000621187    0.000008628
      9        1           0.000197583   -0.000160067   -0.000089805
 -------------------------------------------------------------------
 Cartesian Forces:  Max     0.004354287 RMS     0.001613411

 GradGradGradGradGradGradGradGradGradGradGradGradGradGradGradGradGradGrad
 Berny optimization.
 Using GEDIIS/GDIIS optimizer.
 FormGI is forming the generalized inverse of G from B-inverse, IUseBI=4.
 Internal  Forces:  Max     0.004668436 RMS     0.001530139
 Search for a local minimum.
 Step number   2 out of a maximum of   40
 All quantities printed in internal units (Hartrees-Bohrs-Radians)
 Mixed Optimization -- RFO/linear search
 Update second derivatives using D2CorX and points    1    2
 DE= -1.65D-03 DEPred=-1.86D-03 R= 8.87D-01
 TightC=F SS=  1.41D+00  RLast= 1.41D-01 DXNew= 5.0454D-01 4.2210D-01
 Trust test= 8.87D-01 RLast= 1.41D-01 DXMaxT set to 4.22D-01
 ITU=  1  0
 Use linear search instead of GDIIS.
     Eigenvalues ---    0.00571   0.01507   0.02861   0.02861   0.07050
     Eigenvalues ---    0.07227   0.14673   0.15962   0.16000   0.16000
     Eigenvalues ---    0.16000   0.17373   0.21586   0.23597   0.30841
     Eigenvalues ---    0.34569   0.34721   0.34767   0.35747   0.35854
     Eigenvalues ---    0.60750
 RFO step:  Lambda=-1.72975900D-04 EMin= 5.70765329D-03
 Quartic linear search produced a step of -0.11183.
 Iteration  1 RMS(Cart)=  0.01135765 RMS(Int)=  0.00007265
 Iteration  2 RMS(Cart)=  0.00008842 RMS(Int)=  0.00000232
 Iteration  3 RMS(Cart)=  0.00000000 RMS(Int)=  0.00000232
 Variable       Old X    -DE/DX   Delta X   Delta X   Delta X     New X
                                 (Linear)    (Quad)   (Total)
    R1        3.59846   0.00304   0.01411  -0.00467   0.00943   3.60790
    R2        2.50381   0.00467   0.00352   0.00214   0.00567   2.50947
    R3        2.04565   0.00018  -0.00029   0.00087   0.00058   2.04623
    R4        2.05510  -0.00012  -0.00115   0.00141   0.00026   2.05535
    R5        2.83887   0.00006   0.00264  -0.00380  -0.00116   2.83771
    R6        2.07008   0.00052  -0.00107   0.00292   0.00186   2.07194
    R7        2.07009   0.00052  -0.00107   0.00292   0.00185   2.07194
    R8        2.06682  -0.00025  -0.00058   0.00022  -0.00036   2.06646
    A1        2.12002   0.00439  -0.00070   0.01877   0.01807   2.13809
    A2        1.96616  -0.00065   0.00241  -0.00408  -0.00168   1.96449
    A3        2.19700  -0.00374  -0.00171  -0.01469  -0.01639   2.18061
    A4        2.08220  -0.00027  -0.00076  -0.00022  -0.00098   2.08122
    A5        2.15360   0.00019   0.00229  -0.00276  -0.00047   2.15313
    A6        2.04739   0.00008  -0.00153   0.00298   0.00145   2.04884
    A7        1.92643   0.00115  -0.00025   0.00646   0.00620   1.93263
    A8        1.92644   0.00114  -0.00025   0.00645   0.00619   1.93263
    A9        1.95048  -0.00028  -0.00014  -0.00073  -0.00088   1.94960
   A10        1.87751  -0.00133   0.00181  -0.01141  -0.00961   1.86790
   A11        1.89047  -0.00039  -0.00055  -0.00072  -0.00128   1.88919
   A12        1.89046  -0.00039  -0.00056  -0.00071  -0.00127   1.88919
    D1       -0.00001   0.00000  -0.00001   0.00004   0.00003   0.00002
    D2       -3.14159   0.00000   0.00001  -0.00001  -0.00001   3.14159
    D3       -3.14157  -0.00000  -0.00000  -0.00001  -0.00001  -3.14159
    D4        0.00003  -0.00000   0.00001  -0.00006  -0.00005  -0.00002
    D5        2.10496   0.00011  -0.00097   0.00304   0.00207   2.10703
    D6       -2.10502  -0.00011   0.00096  -0.00299  -0.00202  -2.10704
    D7       -0.00003   0.00000  -0.00001   0.00004   0.00003  -0.00000
    D8       -1.03662   0.00011  -0.00096   0.00299   0.00203  -1.03459
    D9        1.03659  -0.00011   0.00097  -0.00304  -0.00206   1.03453
   D10        3.14158   0.00000   0.00001  -0.00002  -0.00001   3.14156
         Item               Value     Threshold  Converged?
 Maximum Force            0.004668     0.000450     NO 
 RMS     Force            0.001530     0.000300     NO 
 Maximum Displacement     0.043091     0.001800     NO 
 RMS     Displacement     0.011398     0.001200     NO 
 Predicted change in Energy=-1.156120D-04
 GradGradGradGradGradGradGradGradGradGradGradGradGradGradGradGradGradGrad

                          Input orientation:                          
 ---------------------------------------------------------------------
 Center     Atomic      Atomic             Coordinates (Angstroms)
 Number     Number       Type             X           Y           Z
 ---------------------------------------------------------------------
      1         35           0       -1.658583   -1.626762    0.249254
      2          6           0       -0.643304   -0.013887    0.363047
      3          6           0        0.642230    0.044701    0.035269
      4          1           0        1.143569   -0.855790   -0.312223
      5          1           0       -1.231433    0.822944    0.718459
      6          6           0        1.458956    1.302151    0.117287
      7          1           0        2.310352    1.168445    0.795069
      8          1           0        1.868972    1.563439   -0.865443
      9          1           0        0.865141    2.147359    0.476182
 ---------------------------------------------------------------------
                    Distance matrix (angstroms):
                    1          2          3          4          5
     1  Br   0.000000
     2  C    1.909216   0.000000
     3  C    2.851897   1.327956   0.000000
     4  H    2.960019   2.087512   1.087647   0.000000
     5  H    2.530547   1.082820   2.140799   3.085626   0.000000
     6  C    4.279602   2.492358   1.501649   2.222759   2.798078
     7  H    4.885033   3.210706   2.150054   2.585538   3.559422
     8  H    4.885036   3.210713   2.150057   2.585523   3.559437
     9  H    4.545841   2.638028   2.159923   3.117372   2.491665
                    6          7          8          9
     6  C    0.000000
     7  H    1.096422   0.000000
     8  H    1.096423   1.762991   0.000000
     9  H    1.093526   1.774428   1.774429   0.000000
 Stoichiometry    C3H5Br
 Framework group  C1[X(C3H5Br)]
 Deg. of freedom    21
 Full point group                 C1      NOp   1
 Largest Abelian subgroup         C1      NOp   1
 Largest concise Abelian subgroup C1      NOp   1
                         Standard orientation:                         
 ---------------------------------------------------------------------
 Center     Atomic      Atomic             Coordinates (Angstroms)
 Number     Number       Type             X           Y           Z
 ---------------------------------------------------------------------
      1         35           0       -1.244894   -0.036719   -0.000000
      2          6           0        0.588278    0.496747   -0.000001
      3          6           0        1.586363   -0.379206    0.000005
      4          1           0        1.359743   -1.442982   -0.000007
      5          1           0        0.707693    1.572962    0.000004
      6          6           0        3.034350    0.018643   -0.000002
      7          1           0        3.547403   -0.383692    0.881500
      8          1           0        3.547406   -0.383715   -0.881491
      9          1           0        3.155111    1.105480   -0.000016
 ---------------------------------------------------------------------
 Rotational constants (GHZ):          40.5005877           1.6737671           1.6235151
 Standard basis: 6-31G(d,p) (6D, 7F)
 There are   100 symmetry adapted cartesian basis functions of A   symmetry.
 There are   100 symmetry adapted basis functions of A   symmetry.
   100 basis functions,   202 primitive gaussians,   100 cartesian basis functions
    29 alpha electrons       29 beta electrons
       nuclear repulsion energy       212.9228687200 Hartrees.
 NAtoms=    9 NActive=    9 NUniq=    9 SFac= 1.00D+00 NAtFMM=   60 NAOKFM=F Big=F
 Integral buffers will be    131072 words long.
 Raffenetti 2 integral format.
 Two-electron integral symmetry is turned on.
 Nuclear repulsion after empirical dispersion term =      212.9114765842 Hartrees.
 One-electron integrals computed using PRISM.
 NBasis=   100 RedAO= T EigKep=  7.55D-04  NBF=   100
 NBsUse=   100 1.00D-06 EigRej= -1.00D+00 NBFU=   100
 Initial guess from the checkpoint file:  "2_1.chk"
 B after Tr=    -0.000000   -0.000000   -0.000000
         Rot=    1.000000    0.000000   -0.000000   -0.000249 Ang=   0.03 deg.
 ExpMin= 1.43D-01 ExpMax= 5.74D+05 ExpMxC= 5.74D+03 IAcc=2 IRadAn=         4 AccDes= 0.00D+00
 Harris functional with IExCor=  402 and IRadAn=       4 diagonalized for initial guess.
 HarFok:  IExCor=  402 AccDes= 0.00D+00 IRadAn=         4 IDoV= 1 UseB2=F ITyADJ=14
 ICtDFT=  3500011 ScaDFX=  1.000000  1.000000  1.000000  1.000000
 FoFCou: FMM=F IPFlag=           0 FMFlag=      100000 FMFlg1=           0
         NFxFlg=           0 DoJE=T BraDBF=F KetDBF=T FulRan=T
         wScrn=  0.000000 ICntrl=       500 IOpCl=  0 I1Cent=   200000004 NGrid=           0
         NMat0=    1 NMatS0=      1 NMatT0=    0 NMatD0=    1 NMtDS0=    0 NMtDT0=    0
 Petite list used in FoFCou.
 Keep R1 ints in memory in canonical form, NReq=60807049.
 Requested convergence on RMS density matrix=1.00D-08 within 128 cycles.
 Requested convergence on MAX density matrix=1.00D-06.
 Requested convergence on             energy=1.00D-06.
 No special actions if energy rises.
 Integral accuracy reduced to 1.0D-05 until final iterations.
 Initial convergence to 1.0D-05 achieved.  Increase integral accuracy.
 SCF Done:  E(RB3LYP) =  -2689.03166372     A.U. after   11 cycles
            NFock= 11  Conv=0.22D-08     -V/T= 2.0063
 Calling FoFJK, ICntrl=      2127 FMM=F ISym2X=0 I1Cent= 0 IOpClX= 0 NMat=1 NMatS=1 NMatT=0.
 ***** Axes restored to original set *****
 -------------------------------------------------------------------
 Center     Atomic                   Forces (Hartrees/Bohr)
 Number     Number              X              Y              Z
 -------------------------------------------------------------------
      1       35          -0.000163355    0.000158977    0.000081115
      2        6          -0.000841384   -0.001311746   -0.000087351
      3        6           0.000959516    0.000860673   -0.000052671
      4        1          -0.000099332    0.000024349    0.000032997
      5        1           0.000357937    0.000500576    0.000023738
      6        6          -0.000552553   -0.000484738    0.000032131
      7        1           0.000081442    0.000148453   -0.000077117
      8        1           0.000123816    0.000109661    0.000084133
      9        1           0.000133915   -0.000006205   -0.000036974
 -------------------------------------------------------------------
 Cartesian Forces:  Max     0.001311746 RMS     0.000437988

 GradGradGradGradGradGradGradGradGradGradGradGradGradGradGradGradGradGrad
 Berny optimization.
 Using GEDIIS/GDIIS optimizer.
 FormGI is forming the generalized inverse of G from B-inverse, IUseBI=4.
 Internal  Forces:  Max     0.001042126 RMS     0.000302041
 Search for a local minimum.
 Step number   3 out of a maximum of   40
 All quantities printed in internal units (Hartrees-Bohrs-Radians)
 Mixed Optimization -- En-DIIS/RFO-DIIS
 Update second derivatives using D2CorX and points    1    2    3
 DE= -1.33D-04 DEPred=-1.16D-04 R= 1.15D+00
 TightC=F SS=  1.41D+00  RLast= 3.04D-02 DXNew= 7.0988D-01 9.1052D-02
 Trust test= 1.15D+00 RLast= 3.04D-02 DXMaxT set to 4.22D-01
 ITU=  1  1  0
 Use linear search instead of GDIIS.
     Eigenvalues ---    0.00571   0.01506   0.02861   0.02861   0.07018
     Eigenvalues ---    0.07107   0.12167   0.15996   0.16000   0.16000
     Eigenvalues ---    0.16076   0.17544   0.20510   0.23414   0.31005
     Eigenvalues ---    0.34689   0.34714   0.34767   0.35746   0.35858
     Eigenvalues ---    0.59982
 RFO step:  Lambda=-8.23113845D-06 EMin= 5.70765322D-03
 Quartic linear search produced a step of  0.24941.
 Iteration  1 RMS(Cart)=  0.00470986 RMS(Int)=  0.00001447
 Iteration  2 RMS(Cart)=  0.00001471 RMS(Int)=  0.00000105
 Iteration  3 RMS(Cart)=  0.00000000 RMS(Int)=  0.00000105
 Variable       Old X    -DE/DX   Delta X   Delta X   Delta X     New X
                                 (Linear)    (Quad)   (Total)
    R1        3.60790  -0.00005   0.00235  -0.00485  -0.00249   3.60540
    R2        2.50947   0.00064   0.00141  -0.00027   0.00115   2.51062
    R3        2.04623   0.00019   0.00014   0.00062   0.00076   2.04700
    R4        2.05535  -0.00008   0.00006  -0.00013  -0.00006   2.05529
    R5        2.83771  -0.00030  -0.00029  -0.00148  -0.00177   2.83594
    R6        2.07194  -0.00001   0.00046  -0.00021   0.00026   2.07219
    R7        2.07194  -0.00001   0.00046  -0.00021   0.00025   2.07219
    R8        2.06646  -0.00008  -0.00009  -0.00013  -0.00022   2.06624
    A1        2.13809   0.00091   0.00451   0.00200   0.00650   2.14459
    A2        1.96449   0.00013  -0.00042   0.00196   0.00154   1.96603
    A3        2.18061  -0.00104  -0.00409  -0.00396  -0.00804   2.17257
    A4        2.08122   0.00004  -0.00024   0.00041   0.00016   2.08138
    A5        2.15313  -0.00022  -0.00012  -0.00159  -0.00171   2.15142
    A6        2.04884   0.00018   0.00036   0.00118   0.00155   2.05038
    A7        1.93263   0.00020   0.00155   0.00043   0.00197   1.93460
    A8        1.93263   0.00020   0.00155   0.00042   0.00197   1.93460
    A9        1.94960   0.00006  -0.00022   0.00084   0.00062   1.95022
   A10        1.86790  -0.00022  -0.00240  -0.00064  -0.00304   1.86486
   A11        1.88919  -0.00013  -0.00032  -0.00058  -0.00090   1.88829
   A12        1.88919  -0.00013  -0.00032  -0.00058  -0.00090   1.88830
    D1        0.00002  -0.00000   0.00001  -0.00002  -0.00001   0.00001
    D2        3.14159   0.00000  -0.00000   0.00001   0.00000   3.14159
    D3       -3.14159  -0.00000  -0.00000  -0.00001  -0.00001   3.14159
    D4       -0.00002   0.00000  -0.00001   0.00002   0.00001  -0.00001
    D5        2.10703   0.00001   0.00052   0.00012   0.00064   2.10767
    D6       -2.10704  -0.00001  -0.00050  -0.00013  -0.00063  -2.10767
    D7       -0.00000  -0.00000   0.00001  -0.00000   0.00000   0.00000
    D8       -1.03459   0.00001   0.00051   0.00015   0.00066  -1.03393
    D9        1.03453  -0.00001  -0.00051  -0.00010  -0.00061   1.03392
   D10        3.14156   0.00000  -0.00000   0.00003   0.00002   3.14159
         Item               Value     Threshold  Converged?
 Maximum Force            0.001042     0.000450     NO 
 RMS     Force            0.000302     0.000300     NO 
 Maximum Displacement     0.013544     0.001800     NO 
 RMS     Displacement     0.004711     0.001200     NO 
 Predicted change in Energy=-8.568399D-06
 GradGradGradGradGradGradGradGradGradGradGradGradGradGradGradGradGradGrad

                          Input orientation:                          
 ---------------------------------------------------------------------
 Center     Atomic      Atomic             Coordinates (Angstroms)
 Number     Number       Type             X           Y           Z
 ---------------------------------------------------------------------
      1         35           0       -1.664958   -1.623960    0.251614
      2          6           0       -0.641994   -0.017271    0.361892
      3          6           0        0.644144    0.042715    0.034284
      4          1           0        1.146605   -0.857066   -0.313323
      5          1           0       -1.224266    0.824346    0.716882
      6          6           0        1.457032    1.301449    0.117631
      7          1           0        2.309444    1.171309    0.795051
      8          1           0        1.868494    1.565911   -0.863795
      9          1           0        0.861398    2.145166    0.476664
 ---------------------------------------------------------------------
                    Distance matrix (angstroms):
                    1          2          3          4          5
     1  Br   0.000000
     2  C    1.907896   0.000000
     3  C    2.856045   1.328562   0.000000
     4  H    2.968530   2.088124   1.087614   0.000000
     5  H    2.530788   1.083225   2.137251   3.083747   0.000000
     6  C    4.280513   2.490903   1.500715   2.222898   2.788563
     7  H    4.889246   3.211127   2.150747   2.587468   3.551563
     8  H    4.889243   3.211125   2.150745   2.587462   3.551566
     9  H    4.543065   2.636189   2.159444   3.117502   2.480376
                    6          7          8          9
     6  C    0.000000
     7  H    1.096558   0.000000
     8  H    1.096558   1.761226   0.000000
     9  H    1.093408   1.773867   1.773868   0.000000
 Stoichiometry    C3H5Br
 Framework group  C1[X(C3H5Br)]
 Deg. of freedom    21
 Full point group                 C1      NOp   1
 Largest Abelian subgroup         C1      NOp   1
 Largest concise Abelian subgroup C1      NOp   1
                         Standard orientation:                         
 ---------------------------------------------------------------------
 Center     Atomic      Atomic             Coordinates (Angstroms)
 Number     Number       Type             X           Y           Z
 ---------------------------------------------------------------------
      1         35           0       -1.245756   -0.035864    0.000000
      2          6           0        0.587998    0.490836   -0.000002
      3          6           0        1.589175   -0.382504    0.000001
      4          1           0        1.365943   -1.446962   -0.000000
      5          1           0        0.712873    1.566839    0.000003
      6          6           0        3.034367    0.021927   -0.000000
      7          1           0        3.551371   -0.377655    0.880614
      8          1           0        3.551368   -0.377662   -0.880612
      9          1           0        3.150654    1.109134   -0.000003
 ---------------------------------------------------------------------
 Rotational constants (GHZ):          40.6802590           1.6720242           1.6221295
 Standard basis: 6-31G(d,p) (6D, 7F)
 There are   100 symmetry adapted cartesian basis functions of A   symmetry.
 There are   100 symmetry adapted basis functions of A   symmetry.
   100 basis functions,   202 primitive gaussians,   100 cartesian basis functions
    29 alpha electrons       29 beta electrons
       nuclear repulsion energy       212.8904089353 Hartrees.
 NAtoms=    9 NActive=    9 NUniq=    9 SFac= 1.00D+00 NAtFMM=   60 NAOKFM=F Big=F
 Integral buffers will be    131072 words long.
 Raffenetti 2 integral format.
 Two-electron integral symmetry is turned on.
 Nuclear repulsion after empirical dispersion term =      212.8790181038 Hartrees.
 One-electron integrals computed using PRISM.
 NBasis=   100 RedAO= T EigKep=  7.55D-04  NBF=   100
 NBsUse=   100 1.00D-06 EigRej= -1.00D+00 NBFU=   100
 Initial guess from the checkpoint file:  "2_1.chk"
 B after Tr=     0.000000    0.000000   -0.000000
         Rot=    1.000000   -0.000001   -0.000000   -0.000087 Ang=  -0.01 deg.
 Keep R1 ints in memory in canonical form, NReq=60807049.
 Requested convergence on RMS density matrix=1.00D-08 within 128 cycles.
 Requested convergence on MAX density matrix=1.00D-06.
 Requested convergence on             energy=1.00D-06.
 No special actions if energy rises.
 SCF Done:  E(RB3LYP) =  -2689.03167214     A.U. after    8 cycles
            NFock=  8  Conv=0.75D-08     -V/T= 2.0063
 Calling FoFJK, ICntrl=      2127 FMM=F ISym2X=0 I1Cent= 0 IOpClX= 0 NMat=1 NMatS=1 NMatT=0.
 ***** Axes restored to original set *****
 -------------------------------------------------------------------
 Center     Atomic                   Forces (Hartrees/Bohr)
 Number     Number              X              Y              Z
 -------------------------------------------------------------------
      1       35           0.000089727    0.000022088   -0.000018679
      2        6          -0.000248529   -0.000046952    0.000055515
      3        6           0.000042095   -0.000106292   -0.000036816
      4        1           0.000005829    0.000019892    0.000003246
      5        1           0.000085019    0.000106646    0.000002501
      6        6           0.000154606    0.000024095   -0.000034973
      7        1          -0.000066568   -0.000022782    0.000031485
      8        1          -0.000075537   -0.000014305   -0.000002774
      9        1           0.000013357    0.000017609    0.000000495
 -------------------------------------------------------------------
 Cartesian Forces:  Max     0.000248529 RMS     0.000073904

 GradGradGradGradGradGradGradGradGradGradGradGradGradGradGradGradGradGrad
 Berny optimization.
 Using GEDIIS/GDIIS optimizer.
 FormGI is forming the generalized inverse of G from B-inverse, IUseBI=4.
 Internal  Forces:  Max     0.000187754 RMS     0.000052511
 Search for a local minimum.
 Step number   4 out of a maximum of   40
 All quantities printed in internal units (Hartrees-Bohrs-Radians)
 Mixed Optimization -- En-DIIS/RFO-DIIS
 Swapping is turned off.
 Update second derivatives using D2CorX and points    1    2    3    4
 DE= -8.42D-06 DEPred=-8.57D-06 R= 9.83D-01
 TightC=F SS=  1.41D+00  RLast= 1.21D-02 DXNew= 7.0988D-01 3.6340D-02
 Trust test= 9.83D-01 RLast= 1.21D-02 DXMaxT set to 4.22D-01
 ITU=  1  1  1  0
     Eigenvalues ---    0.00571   0.01505   0.02861   0.02861   0.07002
     Eigenvalues ---    0.07179   0.11134   0.16000   0.16000   0.16016
     Eigenvalues ---    0.16066   0.17314   0.20944   0.23736   0.30895
     Eigenvalues ---    0.34729   0.34767   0.34831   0.35770   0.35840
     Eigenvalues ---    0.59140
 En-DIIS/RFO-DIIS/Sim-DIIS IScMMF=       -3 using points:     4    3
 RFO step:  Lambda=-4.47371970D-07.
 DidBck=F Rises=F RFO-DIIS coefs:    1.00225   -0.00225
 Iteration  1 RMS(Cart)=  0.00036992 RMS(Int)=  0.00000010
 Iteration  2 RMS(Cart)=  0.00000011 RMS(Int)=  0.00000001
 Variable       Old X    -DE/DX   Delta X   Delta X   Delta X     New X
                                 (Linear)    (Quad)   (Total)
    R1        3.60540  -0.00006  -0.00001  -0.00026  -0.00027   3.60513
    R2        2.51062   0.00006   0.00000   0.00014   0.00014   2.51076
    R3        2.04700   0.00003   0.00000   0.00008   0.00008   2.04708
    R4        2.05529  -0.00001  -0.00000  -0.00004  -0.00004   2.05525
    R5        2.83594   0.00003  -0.00000   0.00010   0.00009   2.83603
    R6        2.07219  -0.00003   0.00000  -0.00008  -0.00008   2.07211
    R7        2.07219  -0.00003   0.00000  -0.00008  -0.00008   2.07211
    R8        2.06624   0.00001  -0.00000   0.00004   0.00004   2.06628
    A1        2.14459  -0.00013   0.00001  -0.00049  -0.00048   2.14411
    A2        1.96603   0.00019   0.00000   0.00103   0.00103   1.96706
    A3        2.17257  -0.00006  -0.00002  -0.00053  -0.00055   2.17201
    A4        2.08138   0.00004   0.00000   0.00022   0.00022   2.08160
    A5        2.15142  -0.00003  -0.00000  -0.00012  -0.00012   2.15130
    A6        2.05038  -0.00001   0.00000  -0.00010  -0.00009   2.05029
    A7        1.93460  -0.00004   0.00000  -0.00017  -0.00017   1.93443
    A8        1.93460  -0.00004   0.00000  -0.00017  -0.00016   1.93443
    A9        1.95022   0.00002   0.00000  -0.00001  -0.00001   1.95020
   A10        1.86486   0.00008  -0.00001   0.00072   0.00071   1.86557
   A11        1.88829  -0.00001  -0.00000  -0.00017  -0.00017   1.88813
   A12        1.88830  -0.00001  -0.00000  -0.00017  -0.00017   1.88813
    D1        0.00001  -0.00000  -0.00000  -0.00001  -0.00001  -0.00000
    D2        3.14159  -0.00000   0.00000  -0.00000  -0.00000   3.14159
    D3        3.14159   0.00000  -0.00000   0.00000   0.00000  -3.14159
    D4       -0.00001   0.00000   0.00000   0.00001   0.00001  -0.00000
    D5        2.10767  -0.00002   0.00000  -0.00034  -0.00034   2.10733
    D6       -2.10767   0.00002  -0.00000   0.00034   0.00034  -2.10733
    D7        0.00000  -0.00000   0.00000  -0.00000  -0.00000  -0.00000
    D8       -1.03393  -0.00002   0.00000  -0.00033  -0.00033  -1.03426
    D9        1.03392   0.00003  -0.00000   0.00034   0.00034   1.03426
   D10        3.14159   0.00000   0.00000   0.00000   0.00000   3.14159
         Item               Value     Threshold  Converged?
 Maximum Force            0.000188     0.000450     YES
 RMS     Force            0.000053     0.000300     YES
 Maximum Displacement     0.001055     0.001800     YES
 RMS     Displacement     0.000370     0.001200     YES
 Predicted change in Energy=-2.236846D-07
 Optimization completed.
    -- Stationary point found.
                           ----------------------------
                           !   Optimized Parameters   !
                           ! (Angstroms and Degrees)  !
 --------------------------                            --------------------------
 ! Name  Definition              Value          Derivative Info.                !
 --------------------------------------------------------------------------------
 ! R1    R(1,2)                  1.9079         -DE/DX =   -0.0001              !
 ! R2    R(2,3)                  1.3286         -DE/DX =    0.0001              !
 ! R3    R(2,5)                  1.0832         -DE/DX =    0.0                 !
 ! R4    R(3,4)                  1.0876         -DE/DX =    0.0                 !
 ! R5    R(3,6)                  1.5007         -DE/DX =    0.0                 !
 ! R6    R(6,7)                  1.0966         -DE/DX =    0.0                 !
 ! R7    R(6,8)                  1.0966         -DE/DX =    0.0                 !
 ! R8    R(6,9)                  1.0934         -DE/DX =    0.0                 !
 ! A1    A(1,2,3)              122.876          -DE/DX =   -0.0001              !
 ! A2    A(1,2,5)              112.6452         -DE/DX =    0.0002              !
 ! A3    A(3,2,5)              124.4788         -DE/DX =   -0.0001              !
 ! A4    A(2,3,4)              119.2546         -DE/DX =    0.0                 !
 ! A5    A(2,3,6)              123.2673         -DE/DX =    0.0                 !
 ! A6    A(4,3,6)              117.4782         -DE/DX =    0.0                 !
 ! A7    A(3,6,7)              110.8445         -DE/DX =    0.0                 !
 ! A8    A(3,6,8)              110.8443         -DE/DX =    0.0                 !
 ! A9    A(3,6,9)              111.7391         -DE/DX =    0.0                 !
 ! A10   A(7,6,8)              106.8486         -DE/DX =    0.0001              !
 ! A11   A(7,6,9)              108.1912         -DE/DX =    0.0                 !
 ! A12   A(8,6,9)              108.1914         -DE/DX =    0.0                 !
 ! D1    D(1,2,3,4)              0.0003         -DE/DX =    0.0                 !
 ! D2    D(1,2,3,6)            180.0            -DE/DX =    0.0                 !
 ! D3    D(5,2,3,4)           -180.0003         -DE/DX =    0.0                 !
 ! D4    D(5,2,3,6)             -0.0006         -DE/DX =    0.0                 !
 ! D5    D(2,3,6,7)            120.7606         -DE/DX =    0.0                 !
 ! D6    D(2,3,6,8)           -120.7606         -DE/DX =    0.0                 !
 ! D7    D(2,3,6,9)              0.0001         -DE/DX =    0.0                 !
 ! D8    D(4,3,6,7)            -59.2397         -DE/DX =    0.0                 !
 ! D9    D(4,3,6,8)             59.2391         -DE/DX =    0.0                 !
 ! D10   D(4,3,6,9)            179.9997         -DE/DX =    0.0                 !
 --------------------------------------------------------------------------------
 GradGradGradGradGradGradGradGradGradGradGradGradGradGradGradGradGradGrad

                          Input orientation:                          
 ---------------------------------------------------------------------
 Center     Atomic      Atomic             Coordinates (Angstroms)
 Number     Number       Type             X           Y           Z
 ---------------------------------------------------------------------
      1         35           0       -1.664958   -1.623960    0.251614
      2          6           0       -0.641994   -0.017271    0.361892
      3          6           0        0.644144    0.042715    0.034284
      4          1           0        1.146605   -0.857066   -0.313323
      5          1           0       -1.224266    0.824346    0.716882
      6          6           0        1.457032    1.301449    0.117631
      7          1           0        2.309444    1.171309    0.795051
      8          1           0        1.868494    1.565911   -0.863795
      9          1           0        0.861398    2.145166    0.476664
 ---------------------------------------------------------------------
                    Distance matrix (angstroms):
                    1          2          3          4          5
     1  Br   0.000000
     2  C    1.907896   0.000000
     3  C    2.856045   1.328562   0.000000
     4  H    2.968530   2.088124   1.087614   0.000000
     5  H    2.530788   1.083225   2.137251   3.083747   0.000000
     6  C    4.280513   2.490903   1.500715   2.222898   2.788563
     7  H    4.889246   3.211127   2.150747   2.587468   3.551563
     8  H    4.889243   3.211125   2.150745   2.587462   3.551566
     9  H    4.543065   2.636189   2.159444   3.117502   2.480376
                    6          7          8          9
     6  C    0.000000
     7  H    1.096558   0.000000
     8  H    1.096558   1.761226   0.000000
     9  H    1.093408   1.773867   1.773868   0.000000
 Stoichiometry    C3H5Br
 Framework group  C1[X(C3H5Br)]
 Deg. of freedom    21
 Full point group                 C1      NOp   1
 Largest Abelian subgroup         C1      NOp   1
 Largest concise Abelian subgroup C1      NOp   1
                         Standard orientation:                         
 ---------------------------------------------------------------------
 Center     Atomic      Atomic             Coordinates (Angstroms)
 Number     Number       Type             X           Y           Z
 ---------------------------------------------------------------------
      1         35           0       -1.245756   -0.035864    0.000000
      2          6           0        0.587998    0.490836   -0.000002
      3          6           0        1.589175   -0.382504    0.000001
      4          1           0        1.365943   -1.446962   -0.000000
      5          1           0        0.712873    1.566839    0.000003
      6          6           0        3.034367    0.021927   -0.000000
      7          1           0        3.551371   -0.377655    0.880614
      8          1           0        3.551368   -0.377662   -0.880612
      9          1           0        3.150654    1.109134   -0.000003
 ---------------------------------------------------------------------
 Rotational constants (GHZ):          40.6802590           1.6720242           1.6221295

 **********************************************************************

            Population analysis using the SCF Density.

 **********************************************************************

 Orbital symmetries:
       Occupied  (A) (A) (A) (A) (A) (A) (A) (A) (A) (A) (A) (A)
                 (A) (A) (A) (A) (A) (A) (A) (A) (A) (A) (A) (A)
                 (A) (A) (A) (A) (A)
       Virtual   (A) (A) (A) (A) (A) (A) (A) (A) (A) (A) (A) (A)
                 (A) (A) (A) (A) (A) (A) (A) (A) (A) (A) (A) (A)
                 (A) (A) (A) (A) (A) (A) (A) (A) (A) (A) (A) (A)
                 (A) (A) (A) (A) (A) (A) (A) (A) (A) (A) (A) (A)
                 (A) (A) (A) (A) (A) (A) (A) (A) (A) (A) (A) (A)
                 (A) (A) (A) (A) (A) (A) (A) (A) (A) (A) (A)
 The electronic state is 1-A.
 Alpha  occ. eigenvalues -- -482.90366 -61.86615 -56.38715 -56.38336 -56.38328
 Alpha  occ. eigenvalues --  -10.23620 -10.20591 -10.19683  -8.57818  -6.53202
 Alpha  occ. eigenvalues --   -6.51958  -6.51919  -2.64780  -2.64425  -2.64396
 Alpha  occ. eigenvalues --   -2.63404  -2.63403  -0.82560  -0.76393  -0.67437
 Alpha  occ. eigenvalues --   -0.56717  -0.45873  -0.44689  -0.42399  -0.38248
 Alpha  occ. eigenvalues --   -0.35890  -0.32652  -0.28039  -0.24178
 Alpha virt. eigenvalues --    0.00685   0.01715   0.11354   0.12016   0.15642
 Alpha virt. eigenvalues --    0.16307   0.16673   0.25755   0.27500   0.34761
 Alpha virt. eigenvalues --    0.42220   0.46641   0.46949   0.47382   0.47854
 Alpha virt. eigenvalues --    0.50141   0.51411   0.52754   0.54325   0.58590
 Alpha virt. eigenvalues --    0.63945   0.68185   0.68380   0.74079   0.76455
 Alpha virt. eigenvalues --    0.82872   0.85196   0.85240   0.86952   0.89760
 Alpha virt. eigenvalues --    0.90563   0.92227   1.13872   1.24107   1.28729
 Alpha virt. eigenvalues --    1.31814   1.41077   1.56214   1.59093   1.62865
 Alpha virt. eigenvalues --    1.81501   1.82644   1.88328   1.96186   2.03207
 Alpha virt. eigenvalues --    2.06422   2.06756   2.11330   2.17417   2.23573
 Alpha virt. eigenvalues --    2.35730   2.39911   2.49409   2.52686   2.53813
 Alpha virt. eigenvalues --    2.58336   2.66773   2.78962   2.83971   2.85590
 Alpha virt. eigenvalues --    2.92615   3.17036   3.38144   3.41427   3.43647
 Alpha virt. eigenvalues --    3.48843   4.15668   4.32440   4.55515   8.60323
 Alpha virt. eigenvalues --   72.64124
          Condensed to atoms (all electrons):
               1          2          3          4          5          6
     1  Br  34.959496   0.268118  -0.055694  -0.004395  -0.049700   0.004593
     2  C    0.268118   4.888468   0.655378  -0.043400   0.379739  -0.032833
     3  C   -0.055694   0.655378   4.817962   0.382997  -0.043516   0.366848
     4  H   -0.004395  -0.043400   0.382997   0.593775   0.005612  -0.047690
     5  H   -0.049700   0.379739  -0.043516   0.005612   0.580475  -0.008120
     6  C    0.004593  -0.032833   0.366848  -0.047690  -0.008120   4.929634
     7  H   -0.000095  -0.000510  -0.031762  -0.001301   0.000108   0.378471
     8  H   -0.000095  -0.000510  -0.031762  -0.001301   0.000108   0.378471
     9  H    0.000040  -0.006867  -0.034923   0.004433   0.005689   0.385749
               7          8          9
     1  Br  -0.000095  -0.000095   0.000040
     2  C   -0.000510  -0.000510  -0.006867
     3  C   -0.031762  -0.031762  -0.034923
     4  H   -0.001301  -0.001301   0.004433
     5  H    0.000108   0.000108   0.005689
     6  C    0.378471   0.378471   0.385749
     7  H    0.592651  -0.035703  -0.028622
     8  H   -0.035703   0.592650  -0.028622
     9  H   -0.028622  -0.028622   0.587025
 Mulliken charges:
               1
     1  Br  -0.122268
     2  C   -0.107582
     3  C   -0.025528
     4  H    0.111271
     5  H    0.129606
     6  C   -0.355122
     7  H    0.126763
     8  H    0.126763
     9  H    0.116098
 Sum of Mulliken charges =  -0.00000
 Mulliken charges with hydrogens summed into heavy atoms:
               1
     1  Br  -0.122268
     2  C    0.022024
     3  C    0.085743
     6  C    0.014502
 Electronic spatial extent (au):  <R**2>=            702.0512
 Charge=             -0.0000 electrons
 Dipole moment (field-independent basis, Debye):
    X=              1.9936    Y=              0.1784    Z=              0.0000  Tot=              2.0016
 Quadrupole moment (field-independent basis, Debye-Ang):
   XX=            -33.2956   YY=            -35.2258   ZZ=            -38.5640
   XY=              0.1483   XZ=              0.0000   YZ=              0.0000
 Traceless Quadrupole moment (field-independent basis, Debye-Ang):
   XX=              2.3995   YY=              0.4693   ZZ=             -2.8688
   XY=              0.1483   XZ=              0.0000   YZ=              0.0000
 Octapole moment (field-independent basis, Debye-Ang**2):
  XXX=            -32.6551  YYY=              0.4721  ZZZ=              0.0000  XYY=            -10.0741
  XXY=             -3.1540  XXZ=              0.0000  XZZ=            -12.5547  YZZ=             -0.9256
  YYZ=              0.0000  XYZ=              0.0000
 Hexadecapole moment (field-independent basis, Debye-Ang**3):
 XXXX=           -700.4241 YYYY=            -70.8703 ZZZZ=            -48.1638 XXXY=              0.9206
 XXXZ=              0.0000 YYYX=              3.3355 YYYZ=              0.0000 ZZZX=              0.0000
 ZZZY=              0.0000 XXYY=           -133.8275 XXZZ=           -129.8613 YYZZ=            -21.5256
 XXYZ=              0.0000 YYXZ=             -0.0000 ZZXY=             -1.1152
 N-N= 2.128790181038D+02 E-N=-6.830750243655D+03  KE= 2.672180097501D+03
 1\1\GINC-NOTCH207\FOpt\RB3LYP\6-31G(d,p)\C3H5Br1\U6029223\13-Feb-2021\
 0\\# B3LYP/6-31G(d,p) empiricaldispersion=GD3BJ int=(grid=fine) opt fr
 eq=noraman\\2_1.xyz\\0,1\Br,-1.664957764,-1.6239604566,0.251614174\C,-
 0.6419943193,-0.0172705423,0.3618918627\C,0.6441444456,0.0427149362,0.
 0342840073\H,1.1466053797,-0.8570658692,-0.3133230203\H,-1.2242658453,
 0.824345867,0.7168816234\C,1.4570319228,1.3014492756,0.1176314002\H,2.
 3094441998,1.171309446,0.795050692\H,1.8684935576,1.5659114026,-0.8637
 950852\H,0.8613984232,2.1451659407,0.476664346\\Version=ES64L-G16RevB.
 01\State=1-A\HF=-2689.0316721\RMSD=7.514e-09\RMSF=7.390e-05\Dipole=0.5
 347532,0.5780409,-0.0046409\Quadrupole=0.8726904,0.9808507,-1.8535411,
 0.8636072,-0.5935128,0.5111486\PG=C01 [X(C3H5Br1)]\\@


 MEN HAVE BECOME THE TOOLS OF THEIR TOOLS... THOREAU   
 Job cpu time:       0 days  0 hours  7 minutes 21.7 seconds.
 Elapsed time:       0 days  0 hours  0 minutes  9.6 seconds.
 File lengths (MBytes):  RWF=     10 Int=      0 D2E=      0 Chk=      2 Scr=      1
 Normal termination of Gaussian 16 at Sat Feb 13 11:19:28 2021.
 Link1:  Proceeding to internal job step number  2.
 ----------------------------------------------------------------------
 #N Geom=AllCheck Guess=TCheck SCRF=Check GenChk RB3LYP/6-31G(d,p) Freq
 ----------------------------------------------------------------------
 1/10=4,29=7,30=1,38=1,40=1/1,3;
 2/12=2,40=1/2;
 3/5=1,6=6,7=101,11=2,14=-4,25=1,30=1,70=2,71=2,74=-5,75=-4,116=1,124=41,140=1/1,2,3;
 4/5=101/1;
 5/5=2,38=6,98=1/2;
 8/6=4,10=90,11=11/1;
 11/6=1,8=1,9=11,15=111,16=1/1,2,10;
 10/6=1/2;
 6/7=2,8=2,9=2,10=2,28=1/1;
 7/8=1,10=1,25=1/1,2,3,16;
 1/10=4,30=1/3;
 99//99;
 Structure from the checkpoint file:  "2_1.chk"
 -------
 2_1.xyz
 -------
 Charge =  0 Multiplicity = 1
 Redundant internal coordinates found in file.  (old form).
 Br,0,-1.664957764,-1.6239604566,0.251614174
 C,0,-0.6419943193,-0.0172705423,0.3618918627
 C,0,0.6441444456,0.0427149362,0.0342840073
 H,0,1.1466053797,-0.8570658692,-0.3133230203
 H,0,-1.2242658453,0.824345867,0.7168816234
 C,0,1.4570319228,1.3014492756,0.1176314002
 H,0,2.3094441998,1.171309446,0.795050692
 H,0,1.8684935576,1.5659114026,-0.8637950852
 H,0,0.8613984232,2.1451659407,0.476664346
 Recover connectivity data from disk.

 GradGradGradGradGradGradGradGradGradGradGradGradGradGradGradGradGradGrad
 Berny optimization.
 Initialization pass.
                           ----------------------------
                           !    Initial Parameters    !
                           ! (Angstroms and Degrees)  !
 --------------------------                            --------------------------
 ! Name  Definition              Value          Derivative Info.                !
 --------------------------------------------------------------------------------
 ! R1    R(1,2)                  1.9079         calculate D2E/DX2 analytically  !
 ! R2    R(2,3)                  1.3286         calculate D2E/DX2 analytically  !
 ! R3    R(2,5)                  1.0832         calculate D2E/DX2 analytically  !
 ! R4    R(3,4)                  1.0876         calculate D2E/DX2 analytically  !
 ! R5    R(3,6)                  1.5007         calculate D2E/DX2 analytically  !
 ! R6    R(6,7)                  1.0966         calculate D2E/DX2 analytically  !
 ! R7    R(6,8)                  1.0966         calculate D2E/DX2 analytically  !
 ! R8    R(6,9)                  1.0934         calculate D2E/DX2 analytically  !
 ! A1    A(1,2,3)              122.876          calculate D2E/DX2 analytically  !
 ! A2    A(1,2,5)              112.6452         calculate D2E/DX2 analytically  !
 ! A3    A(3,2,5)              124.4788         calculate D2E/DX2 analytically  !
 ! A4    A(2,3,4)              119.2546         calculate D2E/DX2 analytically  !
 ! A5    A(2,3,6)              123.2673         calculate D2E/DX2 analytically  !
 ! A6    A(4,3,6)              117.4782         calculate D2E/DX2 analytically  !
 ! A7    A(3,6,7)              110.8445         calculate D2E/DX2 analytically  !
 ! A8    A(3,6,8)              110.8443         calculate D2E/DX2 analytically  !
 ! A9    A(3,6,9)              111.7391         calculate D2E/DX2 analytically  !
 ! A10   A(7,6,8)              106.8486         calculate D2E/DX2 analytically  !
 ! A11   A(7,6,9)              108.1912         calculate D2E/DX2 analytically  !
 ! A12   A(8,6,9)              108.1914         calculate D2E/DX2 analytically  !
 ! D1    D(1,2,3,4)              0.0003         calculate D2E/DX2 analytically  !
 ! D2    D(1,2,3,6)            180.0            calculate D2E/DX2 analytically  !
 ! D3    D(5,2,3,4)            179.9997         calculate D2E/DX2 analytically  !
 ! D4    D(5,2,3,6)             -0.0006         calculate D2E/DX2 analytically  !
 ! D5    D(2,3,6,7)            120.7606         calculate D2E/DX2 analytically  !
 ! D6    D(2,3,6,8)           -120.7606         calculate D2E/DX2 analytically  !
 ! D7    D(2,3,6,9)              0.0001         calculate D2E/DX2 analytically  !
 ! D8    D(4,3,6,7)            -59.2397         calculate D2E/DX2 analytically  !
 ! D9    D(4,3,6,8)             59.2391         calculate D2E/DX2 analytically  !
 ! D10   D(4,3,6,9)            179.9997         calculate D2E/DX2 analytically  !
 --------------------------------------------------------------------------------
 Trust Radius=3.00D-01 FncErr=1.00D-07 GrdErr=1.00D-07 EigMax=2.50D+02 EigMin=1.00D-04
 Number of steps in this run=      2 maximum allowed number of steps=      2.
 GradGradGradGradGradGradGradGradGradGradGradGradGradGradGradGradGradGrad

                          Input orientation:                          
 ---------------------------------------------------------------------
 Center     Atomic      Atomic             Coordinates (Angstroms)
 Number     Number       Type             X           Y           Z
 ---------------------------------------------------------------------
      1         35           0       -1.664958   -1.623960    0.251614
      2          6           0       -0.641994   -0.017271    0.361892
      3          6           0        0.644144    0.042715    0.034284
      4          1           0        1.146605   -0.857066   -0.313323
      5          1           0       -1.224266    0.824346    0.716882
      6          6           0        1.457032    1.301449    0.117631
      7          1           0        2.309444    1.171309    0.795051
      8          1           0        1.868494    1.565911   -0.863795
      9          1           0        0.861398    2.145166    0.476664
 ---------------------------------------------------------------------
                    Distance matrix (angstroms):
                    1          2          3          4          5
     1  Br   0.000000
     2  C    1.907896   0.000000
     3  C    2.856045   1.328562   0.000000
     4  H    2.968530   2.088124   1.087614   0.000000
     5  H    2.530788   1.083225   2.137251   3.083747   0.000000
     6  C    4.280513   2.490903   1.500715   2.222898   2.788563
     7  H    4.889246   3.211127   2.150747   2.587468   3.551563
     8  H    4.889243   3.211125   2.150745   2.587462   3.551566
     9  H    4.543065   2.636189   2.159444   3.117502   2.480376
                    6          7          8          9
     6  C    0.000000
     7  H    1.096558   0.000000
     8  H    1.096558   1.761226   0.000000
     9  H    1.093408   1.773867   1.773868   0.000000
 Stoichiometry    C3H5Br
 Framework group  C1[X(C3H5Br)]
 Deg. of freedom    21
 Full point group                 C1      NOp   1
 Largest Abelian subgroup         C1      NOp   1
 Largest concise Abelian subgroup C1      NOp   1
                         Standard orientation:                         
 ---------------------------------------------------------------------
 Center     Atomic      Atomic             Coordinates (Angstroms)
 Number     Number       Type             X           Y           Z
 ---------------------------------------------------------------------
      1         35           0       -1.245756   -0.035864    0.000000
      2          6           0        0.587998    0.490836   -0.000002
      3          6           0        1.589175   -0.382504    0.000001
      4          1           0        1.365943   -1.446962   -0.000000
      5          1           0        0.712873    1.566839    0.000003
      6          6           0        3.034367    0.021927   -0.000000
      7          1           0        3.551371   -0.377655    0.880614
      8          1           0        3.551368   -0.377662   -0.880612
      9          1           0        3.150654    1.109134   -0.000003
 ---------------------------------------------------------------------
 Rotational constants (GHZ):          40.6802590           1.6720242           1.6221295
 Standard basis: 6-31G(d,p) (6D, 7F)
 There are   100 symmetry adapted cartesian basis functions of A   symmetry.
 There are   100 symmetry adapted basis functions of A   symmetry.
   100 basis functions,   202 primitive gaussians,   100 cartesian basis functions
    29 alpha electrons       29 beta electrons
       nuclear repulsion energy       212.8904089353 Hartrees.
 NAtoms=    9 NActive=    9 NUniq=    9 SFac= 1.00D+00 NAtFMM=   60 NAOKFM=F Big=F
 Integral buffers will be    131072 words long.
 Raffenetti 2 integral format.
 Two-electron integral symmetry is turned on.
 Nuclear repulsion after empirical dispersion term =      212.8790181038 Hartrees.
 One-electron integrals computed using PRISM.
 NBasis=   100 RedAO= T EigKep=  7.55D-04  NBF=   100
 NBsUse=   100 1.00D-06 EigRej= -1.00D+00 NBFU=   100
 Initial guess from the checkpoint file:  "2_1.chk"
 B after Tr=     0.000000    0.000000    0.000000
         Rot=    1.000000    0.000000   -0.000000    0.000000 Ang=   0.00 deg.
 Keep R1 ints in memory in canonical form, NReq=60807049.
 Requested convergence on RMS density matrix=1.00D-08 within 128 cycles.
 Requested convergence on MAX density matrix=1.00D-06.
 Requested convergence on             energy=1.00D-06.
 No special actions if energy rises.
 SCF Done:  E(RB3LYP) =  -2689.03167214     A.U. after    1 cycles
            NFock=  1  Conv=0.37D-08     -V/T= 2.0063
 DoSCS=F DFT=T ScalE2(SS,OS)=  1.000000  1.000000
 Range of M.O.s used for correlation:     1   100
 NBasis=   100 NAE=    29 NBE=    29 NFC=     0 NFV=     0
 NROrb=    100 NOA=    29 NOB=    29 NVA=    71 NVB=    71

 **** Warning!!: The largest alpha MO coefficient is  0.19658786D+02

 Symmetrizing basis deriv contribution to polar:
 IMax=3 JMax=2 DiffMx= 0.00D+00
 G2DrvN: will do    10 centers at a time, making    1 passes.
 Calling FoFCou, ICntrl=  3107 FMM=F I1Cent=   0 AccDes= 0.00D+00.
 End of G2Drv F.D. properties file   721 does not exist.
 End of G2Drv F.D. properties file   722 does not exist.
 End of G2Drv F.D. properties file   788 does not exist.
          IDoAtm=111111111
          Differentiating once with respect to electric field.
                with respect to dipole field.
          Differentiating once with respect to nuclear coordinates.
 Keep R1 ints in memory in canonical form, NReq=60720503.
          There are    30 degrees of freedom in the 1st order CPHF.  IDoFFX=6 NUNeed=     3.
     27 vectors produced by pass  0 Test12= 6.86D-15 3.33D-09 XBig12= 7.25D+01 5.96D+00.
 AX will form    27 AO Fock derivatives at one time.
     27 vectors produced by pass  1 Test12= 6.86D-15 3.33D-09 XBig12= 7.80D+00 6.28D-01.
     27 vectors produced by pass  2 Test12= 6.86D-15 3.33D-09 XBig12= 1.17D-01 6.74D-02.
     27 vectors produced by pass  3 Test12= 6.86D-15 3.33D-09 XBig12= 5.86D-04 5.44D-03.
     27 vectors produced by pass  4 Test12= 6.86D-15 3.33D-09 XBig12= 1.28D-06 2.16D-04.
     15 vectors produced by pass  5 Test12= 6.86D-15 3.33D-09 XBig12= 8.83D-10 4.60D-06.
      3 vectors produced by pass  6 Test12= 6.86D-15 3.33D-09 XBig12= 8.92D-13 1.72D-07.
      1 vectors produced by pass  7 Test12= 6.86D-15 3.33D-09 XBig12= 7.53D-16 5.52D-09.
 InvSVY:  IOpt=1 It=  1 EMax= 3.55D-15
 Solved reduced A of dimension   154 with    30 vectors.
 Isotropic polarizability for W=    0.000000       49.19 Bohr**3.
 End of Minotr F.D. properties file   721 does not exist.
 End of Minotr F.D. properties file   722 does not exist.
 End of Minotr F.D. properties file   788 does not exist.

 **********************************************************************

            Population analysis using the SCF Density.

 **********************************************************************

 Orbital symmetries:
[...]
                 (A) (A) (A) (A) (A) (A) (A) (A) (A) (A) (A) (A)
                 (A) (A) (A) (A) (A)
       Virtual   (A) (A) (A) (A) (A) (A) (A) (A) (A) (A) (A) (A)
                 (A) (A) (A) (A) (A) (A) (A) (A) (A) (A) (A) (A)
                 (A) (A) (A) (A) (A) (A) (A) (A) (A) (A) (A) (A)
                 (A) (A) (A) (A) (A) (A) (A) (A) (A) (A) (A) (A)
                 (A) (A) (A) (A) (A) (A) (A) (A) (A) (A) (A) (A)
                 (A) (A) (A) (A) (A) (A) (A) (A) (A) (A) (A) (A)
                 (A) (A) (A) (A) (A) (A) (A) (A) (A) (A) (A) (A)
                 (A) (A) (A) (A) (A) (A) (A) (A) (A) (A) (A) (A)
                 (A) (A) (A) (A) (A) (A) (A) (A) (A) (A) (A) (A)
                 (A) (A) (A) (A) (A) (A) (A) (A) (A) (A) (A) (A)
                 (A) (A) (A) (A) (A) (A) (A) (A) (A) (A) (A) (A)
                 (A) (A) (A) (A) (A) (A) (A) (A) (A) (A)
 The electronic state is 1-A.
 Alpha  occ. eigenvalues -- -483.18922 -62.80190 -56.51327 -56.50939 -56.50926
 Alpha  occ. eigenvalues --  -10.28580 -10.25882 -10.24895  -8.84510  -6.62582
 Alpha  occ. eigenvalues --   -6.61308  -6.61264  -2.68340  -2.67978  -2.67947
 Alpha  occ. eigenvalues --   -2.66915  -2.66915  -0.84272  -0.78407  -0.69016
 Alpha  occ. eigenvalues --   -0.57948  -0.47245  -0.46208  -0.43836  -0.39511
 Alpha  occ. eigenvalues --   -0.37010  -0.34517  -0.29890  -0.26084
 Alpha virt. eigenvalues --   -0.00358   0.00927   0.04811   0.06142   0.09038
 Alpha virt. eigenvalues --    0.09790   0.10831   0.14789   0.16570   0.19797
 Alpha virt. eigenvalues --    0.21373   0.22799   0.24041   0.24065   0.25373
 Alpha virt. eigenvalues --    0.27513   0.27708   0.30300   0.30855   0.31587
 Alpha virt. eigenvalues --    0.34954   0.35733   0.37586   0.39244   0.39399
 Alpha virt. eigenvalues --    0.40092   0.42732   0.44009   0.45078   0.52905
 Alpha virt. eigenvalues --    0.54159   0.56586   0.61340   0.62099   0.62651
 Alpha virt. eigenvalues --    0.70684   0.72683   0.80303   0.86826   0.93191
 Alpha virt. eigenvalues --    0.95215   0.95236   0.96626   1.00205   1.03268
 Alpha virt. eigenvalues --    1.03348   1.10413   1.15293   1.20329   1.24639
 Alpha virt. eigenvalues --    1.32184   1.33280   1.33356   1.37010   1.40057
 Alpha virt. eigenvalues --    1.43640   1.45475   1.46735   1.48385   1.50809
 Alpha virt. eigenvalues --    1.51476   1.52231   1.53969   1.54101   1.54775
 Alpha virt. eigenvalues --    1.56695   1.61880   1.62825   1.63980   1.64018
 Alpha virt. eigenvalues --    1.66139   1.72681   1.73317   1.79668   1.84150
 Alpha virt. eigenvalues --    1.84408   1.88106   1.92750   1.98366   2.04657
 Alpha virt. eigenvalues --    2.14495   2.17368   2.20967   2.25055   2.28630
 Alpha virt. eigenvalues --    2.30652   2.34616   2.40462   2.48603   2.50774
 Alpha virt. eigenvalues --    2.51552   2.56466   2.56763   2.58070   2.68868
 Alpha virt. eigenvalues --    2.77333   2.81079   2.83092   2.85354   2.88056
 Alpha virt. eigenvalues --    2.91627   2.98785   3.00734   3.05152   3.06805
 Alpha virt. eigenvalues --    3.08062   3.11498   3.15302   3.16943   3.20819
 Alpha virt. eigenvalues --    3.24006   3.25293   3.37735   3.39500   3.41554
 Alpha virt. eigenvalues --    3.48446   3.51099   3.57778   3.62909   3.68371
 Alpha virt. eigenvalues --    3.74347   3.84340   3.91818   4.00060   4.03469
 Alpha virt. eigenvalues --    4.06696   4.12092   4.15679   4.16809   4.26428
 Alpha virt. eigenvalues --    4.27837   4.36392   4.38276   4.44406   4.57205
 Alpha virt. eigenvalues --    4.67618   4.73232   4.83587   7.64703  21.97748
 Alpha virt. eigenvalues --   22.26850  22.65965
          Condensed to atoms (all electrons):
               1          2          3          4          5          6
     1  Br  34.920480   0.255227  -0.029216  -0.009786  -0.060158   0.007797
     2  C    0.255227   4.898238   0.596337  -0.027572   0.420113  -0.033282
     3  C   -0.029216   0.596337   5.127259   0.384398  -0.060445   0.223001
     4  H   -0.009786  -0.027572   0.384398   0.553446   0.006799  -0.025545
     5  H   -0.060158   0.420113  -0.060445   0.006799   0.562852  -0.000998
     6  C    0.007797  -0.033282   0.223001  -0.025545  -0.000998   4.845935
     7  H   -0.000058  -0.004997  -0.038020  -0.002859  -0.000083   0.402487
     8  H   -0.000058  -0.004997  -0.038020  -0.002859  -0.000083   0.402487
     9  H   -0.000023   0.011984  -0.073490   0.004403   0.004088   0.428634
               7          8          9
     1  Br  -0.000058  -0.000058  -0.000023
     2  C   -0.004997  -0.004997   0.011984
     3  C   -0.038020  -0.038020  -0.073490
     4  H   -0.002859  -0.002859   0.004403
     5  H   -0.000083  -0.000083   0.004088
     6  C    0.402487   0.402487   0.428634
     7  H    0.608349  -0.040044  -0.026612
     8  H   -0.040044   0.608349  -0.026612
     9  H   -0.026612  -0.026612   0.591220
 Mulliken charges:
               1
     1  Br  -0.084203
     2  C   -0.111051
     3  C   -0.091804
     4  H    0.119575
     5  H    0.127915
     6  C   -0.250515
     7  H    0.101838
     8  H    0.101837
     9  H    0.086409
 Sum of Mulliken charges =  -0.00000
 Mulliken charges with hydrogens summed into heavy atoms:
               1
     1  Br  -0.084203
     2  C    0.016863
     3  C    0.027771
     6  C    0.039569
 Electronic spatial extent (au):  <R**2>=            703.1726
 Charge=             -0.0000 electrons
 Dipole moment (field-independent basis, Debye):
    X=              1.9664    Y=              0.1391    Z=              0.0000  Tot=              1.9713
 Quadrupole moment (field-independent basis, Debye-Ang):
   XX=            -33.7639   YY=            -35.7485   ZZ=            -39.0813
   XY=              0.0898   XZ=              0.0000   YZ=              0.0000
 Traceless Quadrupole moment (field-independent basis, Debye-Ang):
   XX=              2.4340   YY=              0.4494   ZZ=             -2.8834
   XY=              0.0898   XZ=              0.0000   YZ=              0.0000
 Octapole moment (field-independent basis, Debye-Ang**2):
  XXX=            -33.4922  YYY=              0.5047  ZZZ=              0.0000  XYY=            -10.2662
  XXY=             -3.2652  XXZ=              0.0000  XZZ=            -12.7058  YZZ=             -1.0237
  YYZ=              0.0000  XYZ=              0.0000
 Hexadecapole moment (field-independent basis, Debye-Ang**3):
 XXXX=           -714.1329 YYYY=            -73.8444 ZZZZ=            -52.1813 XXXY=              1.1158
 XXXZ=              0.0001 YYYX=              3.3121 YYYZ=              0.0000 ZZZX=              0.0000
 ZZZY=              0.0000 XXYY=           -136.7411 XXZZ=           -132.2186 YYZZ=            -22.8029
 XXYZ=              0.0000 YYXZ=             -0.0000 ZZXY=             -1.4293
 N-N= 2.128904089353D+02 E-N=-6.850747373513D+03  KE= 2.687809097010D+03
  Exact polarizability:  86.437  -3.398  48.865   0.000  -0.000  39.546
 Approx polarizability: 111.949  -6.981  75.030   0.000  -0.000  58.075

 **********************************************************************

            Electrostatic Properties Using The SCF Density.

 **********************************************************************

       Atomic Center    1 is at  -1.245756 -0.035864  0.000000
       Atomic Center    2 is at   0.587998  0.490836 -0.000002
       Atomic Center    3 is at   1.589175 -0.382504  0.000001
       Atomic Center    4 is at   1.365943 -1.446962 -0.000000
       Atomic Center    5 is at   0.712873  1.566839  0.000003
       Atomic Center    6 is at   3.034367  0.021927 -0.000000
       Atomic Center    7 is at   3.551371 -0.377655  0.880614
       Atomic Center    8 is at   3.551368 -0.377662 -0.880612
       Atomic Center    9 is at   3.150654  1.109134 -0.000003
 -----------------------------------------------------------------

              Electrostatic Properties (Atomic Units)

 -----------------------------------------------------------------
    Center     Electric         -------- Electric Field --------
               Potential          X             Y             Z
 -----------------------------------------------------------------
    1 Atom   -175.831737     -0.029383     -0.007837     -0.000000
    2 Atom    -14.722146      0.016630     -0.007386      0.000000
    3 Atom    -14.749151     -0.003837      0.010992     -0.000000
    4 Atom     -1.099863     -0.004244     -0.020634      0.000000
    5 Atom     -1.086793      0.002674      0.021889     -0.000000
    6 Atom    -14.752731     -0.003533     -0.000388      0.000000
    7 Atom     -1.107394      0.008195     -0.006579      0.014366
    8 Atom     -1.107394      0.008196     -0.006579     -0.014366
    9 Atom     -1.110116      0.001974      0.018357     -0.000000
 -----------------------------------------------------------------
 -----------------------------------------------------
    Center         ---- Electric Field Gradient ----
                     XX            YY            ZZ
 -----------------------------------------------------
    1 Atom    ************  ************  ************
    2 Atom     -511.548356   -511.133269   -511.400906
    3 Atom     -511.006259   -510.988197   -511.466952
    4 Atom       -1.723633     -2.139216     -1.695391
    5 Atom       -1.704284     -2.150556     -1.677610
    6 Atom     -510.410216   -510.333965   -510.342496
    7 Atom       -1.794163     -1.752695     -1.977990
    8 Atom       -1.794163     -1.752698     -1.977991
    9 Atom       -1.717293     -2.150047     -1.702003
 -----------------------------------------------------
 -----------------------------------------------------
    Center         ---- Electric Field Gradient ----
                     XY            XZ            YZ
 -----------------------------------------------------
    1 Atom       -3.040067      0.000014     -0.000001
    2 Atom       -0.254738      0.000001      0.000000
    3 Atom       -0.061287     -0.000000      0.000001
    4 Atom       -0.087023     -0.000000     -0.000001
    5 Atom       -0.049890     -0.000000     -0.000002
    6 Atom       -0.030734      0.000000      0.000000
    7 Atom        0.073152     -0.166862      0.131852
    8 Atom        0.073153      0.166861     -0.131854
    9 Atom       -0.045334      0.000000      0.000001
 -----------------------------------------------------
 -----------------------------------------------------
    Center         ---- Electric Field Gradient ----
                   ----       Eigenvalues       ----
 -----------------------------------------------------
    1 Atom    ************  ************  ************
    2 Atom     -511.669394   -511.400906   -511.012231
    3 Atom     -511.466952   -511.059177   -510.935279
    4 Atom       -2.156703     -1.706146     -1.695391
    5 Atom       -2.156066     -1.698774     -1.677610
    6 Atom     -510.421061   -510.342496   -510.323119
    7 Atom       -2.135876     -1.698444     -1.690529
    8 Atom       -2.135878     -1.698445     -1.690529
    9 Atom       -2.154745     -1.712595     -1.702003
 -----------------------------------------------------
 -----------------------------------------------------
    Center         ---- Electric Field Gradient ----
                       ( tensor representation )
                   3XX-RR        3YY-RR        3ZZ-RR
 -----------------------------------------------------
    1 Atom       -6.540041      3.057530      3.482511
    2 Atom       -0.187512      0.227575     -0.040062
    3 Atom        0.147544      0.165606     -0.313150
    4 Atom        0.129114     -0.286469      0.157356
    5 Atom        0.139866     -0.306406      0.166540
    6 Atom       -0.047991      0.028261      0.019729
    7 Atom        0.047453      0.088921     -0.136374
    8 Atom        0.047454      0.088919     -0.136374
    9 Atom        0.139155     -0.293599      0.154445
 -----------------------------------------------------
 -----------------------------------------------------
    Center         ---- Electric Field Gradient ----
                       ( tensor representation )
                   ----       Eigenvalues       ----
 -----------------------------------------------------
    1 Atom       -7.421955      3.482511      3.939444
    2 Atom       -0.308550     -0.040062      0.348613
    3 Atom       -0.313150      0.094626      0.218524
    4 Atom       -0.303956      0.146600      0.157356
    5 Atom       -0.311916      0.145375      0.166540
    6 Atom       -0.058836      0.019729      0.039106
    7 Atom       -0.294260      0.143172      0.151087
    8 Atom       -0.294260      0.143173      0.151088
    9 Atom       -0.298297      0.143853      0.154445
 -----------------------------------------------------

 ----------------------------------------------------------------------

 Electric dipole moment (input orientation):
 (Debye = 10**-18 statcoulomb cm , SI units = C m)
                  (au)            (Debye)         (10**-30 SI)
   Tot        0.775585D+00      0.197134D+01      0.657568D+01
   x          0.536571D+00      0.136383D+01      0.454924D+01
   y          0.559942D+00      0.142323D+01      0.474738D+01
   z         -0.942949D-02     -0.239674D-01     -0.799466D-01

 Dipole polarizability, Alpha (input orientation).
 (esu units = cm**3 , SI units = C**2 m**2 J**-1)
 Alpha(0;0):
               (au)            (10**-24 esu)      (10**-40 SI)
   iso        0.582826D+02      0.863659D+01      0.960950D+01
   aniso      0.433975D+02      0.643084D+01      0.715528D+01
   xx         0.718807D+02      0.106516D+02      0.118515D+02
   yx         0.188788D+02      0.279754D+01      0.311269D+01
   yy         0.622400D+02      0.922301D+01      0.102620D+02
   zx        -0.410434D+01     -0.608201D+00     -0.676715D+00
   zy         0.380267D+00      0.563498D-01      0.626976D-01
   zz         0.407271D+02      0.603513D+01      0.671499D+01

 First dipole hyperpolarizability, Beta (input orientation).
 ||, _|_  parallel and perpendicular components, (z) with respect to z axis,
 vector components x,y,z.  Values do not include the 1/n! factor of 1/2.
 (esu units = statvolt**-1 cm**4 , SI units = C**3 m**3 J**-2)
 Beta(0;0,0):
               (au)            (10**-30 esu)      (10**-50 SI)
   || (z)    -0.449636D+01     -0.388451D-01     -0.144170D-01
   _|_(z)    -0.149879D+01     -0.129484D-01     -0.480565D-02
   x          0.233841D+03      0.202020D+01      0.749777D+00
   y          0.166793D+03      0.144096D+01      0.534799D+00
   z         -0.224818D+02     -0.194225D+00     -0.720848D-01
   ||         0.576218D+02      0.497807D+00      0.184756D+00
   xxx        0.574353D+02      0.496196D+00      0.184158D+00
   xxy        0.176098D+02      0.152135D+00      0.564634D-01
   yxy        0.208175D+01      0.179847D-01      0.667485D-02
   yyy        0.264884D+02      0.228839D+00      0.849313D-01
   xxz        0.131842D+00      0.113901D-02      0.422732D-03
   yxz       -0.697827D+01     -0.602868D-01     -0.223749D-01
   yyz        0.176861D+01      0.152794D-01      0.567080D-02
   zxz        0.184298D+02      0.159219D+00      0.590927D-01
   zyz        0.114995D+02      0.993471D-01      0.368717D-01
   zzz       -0.939438D+01     -0.811602D-01     -0.301218D-01

 ----------------------------------------------------------------------

 Dipole orientation:
    35         -0.39916081         -0.20203340         -4.39806902
     6         -1.08200468          0.10426616         -0.87119745
     6          0.54184122         -0.62411391          0.89962023
     1          2.34547383         -1.43313254          0.33692846
     1         -2.91745955          0.92755093         -0.49237095
     6          0.02203045         -0.39094402          3.67774627
     1          0.09109765         -2.24578332          4.59904532
     1          1.45323826          0.79094541          4.59903267
     1         -1.83373331          0.44146647          4.04187630

 Electric dipole moment (dipole orientation):
 (Debye = 10**-18 statcoulomb cm , SI units = C m)
                  (au)            (Debye)         (10**-30 SI)
   Tot        0.775585D+00      0.197134D+01      0.657568D+01
   x          0.000000D+00      0.000000D+00      0.000000D+00
   y          0.000000D+00      0.000000D+00      0.000000D+00
   z          0.775585D+00      0.197134D+01      0.657568D+01

 Dipole polarizability, Alpha (dipole orientation).
 (esu units = cm**3 , SI units = C**2 m**2 J**-1)
 Alpha(0;0):
               (au)            (10**-24 esu)      (10**-40 SI)
   iso        0.582826D+02      0.863659D+01      0.960950D+01
   aniso      0.433975D+02      0.643084D+01      0.715528D+01
   xx         0.478576D+02      0.709176D+01      0.789065D+01
   yx        -0.372831D+01     -0.552479D+00     -0.614716D+00
   yy         0.412180D+02      0.610787D+01      0.679593D+01
   zx         0.548185D+01      0.812327D+00      0.903835D+00
   zy        -0.245885D+01     -0.364364D+00     -0.405409D+00
   zz         0.857723D+02      0.127101D+02      0.141419D+02

 First dipole hyperpolarizability, Beta (dipole orientation).
 ||, _|_  parallel and perpendicular components, (z) with respect to z axis,
 vector components x,y,z.  Values do not include the 1/n! factor of 1/2.
 (esu units = statvolt**-1 cm**4 , SI units = C**3 m**3 J**-2)
 Beta(0;0,0):
               (au)            (10**-30 esu)      (10**-50 SI)
   || (z)     0.564937D+02      0.488062D+00      0.181139D+00
   _|_(z)     0.188312D+02      0.162687D+00      0.603798D-01
   x          0.517607D+02      0.447172D+00      0.165964D+00
   y         -0.232172D+02     -0.200579D+00     -0.744428D-01
   z          0.282469D+03      0.244031D+01      0.905697D+00
   ||         0.576218D+02      0.497807D+00      0.184756D+00
   xxx       -0.198927D+01     -0.171858D-01     -0.637833D-02
   xxy        0.909357D+01      0.785614D-01      0.291573D-01
   yxy        0.322352D+01      0.278487D-01      0.103358D-01
   yyy       -0.964686D+01     -0.833413D-01     -0.309313D-01
   xxz        0.232468D+02      0.200834D+00      0.745377D-01
   yxz       -0.115577D+01     -0.998494D-02     -0.370581D-02
   yyz        0.211886D+02      0.183053D+00      0.679382D-01
   zxz        0.160193D+02      0.138394D+00      0.513637D-01
   zyz       -0.718579D+01     -0.620796D-01     -0.230402D-01
   zzz        0.497209D+02      0.429550D+00      0.159423D+00

 ----------------------------------------------------------------------
 1\1\GINC-NOTCH207\SP\RM06\def2TZVP\C3H5Br1\U6029223\13-Feb-2021\0\\# M
 06/def2TZVP int=(grid=ultrafine) polar prop=(efg) guess=read geom=chec
 k\\2_1.xyz\\0,1\Br,0,-1.664957764,-1.6239604566,0.251614174\C,0,-0.641
 9943193,-0.0172705423,0.3618918627\C,0,0.6441444456,0.0427149362,0.034
 2840073\H,0,1.1466053797,-0.8570658692,-0.3133230203\H,0,-1.2242658453
 ,0.824345867,0.7168816234\C,0,1.4570319228,1.3014492756,0.1176314002\H
 ,0,2.3094441998,1.171309446,0.795050692\H,0,1.8684935576,1.5659114026,
 -0.8637950852\H,0,0.8613984232,2.1451659407,0.476664346\\Version=ES64L
 -G16RevB.01\State=1-A\HF=-2691.3158154\RMSD=1.688e-09\Dipole=0.536571,
 0.5599416,-0.0094295\Polar=71.880748,18.8787562,62.2399873,-4.1043432,
 0.3802672,40.727107\HyperPolar=57.4352544,17.6097912,2.081751,26.48838
 63,0.1318417,-6.9782731,1.7686091,18.4298351,11.4995418,-9.3943847\Qua
 drupole=0.9204225,0.9432842,-1.8637067,0.8792666,-0.6053478,0.500621\P
 G=C01 [X(C3H5Br1)]\\@


 ... UNTIL SCIENCE IS MIXED WITH EMOTION AND APPEALS TO THE HEART AND
 IMAGINATION , IT IS LIKE DEAD INORGANIC MATTER; AND WHEN IT IS SO MIXED
 AND SO TRANSFORMED IT IS LITERATURE.

                                  -- JOHN BURROUGHS
 Job cpu time:       0 days  0 hours 12 minutes 36.8 seconds.
 Elapsed time:       0 days  0 hours  0 minutes 14.9 seconds.
 File lengths (MBytes):  RWF=     19 Int=      0 D2E=      0 Chk=      4 Scr=      1
 Normal termination of Gaussian 16 at Sat Feb 13 11:20:12 2021.
