 Entering Gaussian System, Link 0=/uufs/chpc.utah.edu/sys/installdir/gaussian16/B01/E6B/g16/g16
 Input=3_1.com
 Output=3_1.log
 Initial command:
 /uufs/chpc.utah.edu/sys/installdir/gaussian16/B01/E6B/g16/l1.exe "/scratch/general/lustre/u6029223/2065983/notchpeak.peaks/Gau-134430.inp" -scrdir="/scratch/general/lustre/u6029223/2065983/notchpeak.peaks/"
 Entering Link 1 = /uufs/chpc.utah.edu/sys/installdir/gaussian16/B01/E6B/g16/l1.exe PID=    134433.
  
 Copyright (c) 1988-2017, Gaussian, Inc.  All Rights Reserved.
  
 This is part of the Gaussian(R) 16 program.  It is based on
 the Gaussian(R) 09 system (copyright 2009, Gaussian, Inc.),
 the Gaussian(R) 03 system (copyright 2003, Gaussian, Inc.),
 the Gaussian(R) 98 system (copyright 1998, Gaussian, Inc.),
 the Gaussian(R) 94 system (copyright 1995, Gaussian, Inc.),
 the Gaussian 92(TM) system (copyright 1992, Gaussian, Inc.),
 the Gaussian 90(TM) system (copyright 1990, Gaussian, Inc.),
 the Gaussian 88(TM) system (copyright 1988, Gaussian, Inc.),
 the Gaussian 86(TM) system (copyright 1986, Carnegie Mellon
 University), and the Gaussian 82(TM) system (copyright 1983,
 Carnegie Mellon University). Gaussian is a federally registered
 trademark of Gaussian, Inc.
  
 This software contains proprietary and confidential information,
 including trade secrets, belonging to Gaussian, Inc.
  
 This software is provided under written license and may be
 used, copied, transmitted, or stored only in accord with that
 written license.
  
 The following legend is applicable only to US Government
 contracts under FAR:
  
                    RESTRICTED RIGHTS LEGEND
  
 Use, reproduction and disclosure by the US Government is
 subject to restrictions as set forth in subparagraphs (a)
 and (c) of the Commercial Computer Software - Restricted
 Rights clause in FAR 52.227-19.
  
 Gaussian, Inc.
 340 Quinnipiac St., Bldg. 40, Wallingford CT 06492
  
  
 ---------------------------------------------------------------
 Warning -- This program may not be used in any manner that
 competes with the business of Gaussian, Inc. or will provide
 assistance to any competitor of Gaussian, Inc.  The licensee
 of this program is prohibited from giving any competitor of
 Gaussian, Inc. access to this program.  By using this program,
 the user acknowledges that Gaussian, Inc. is engaged in the
 business of creating and licensing software in the field of
 computational chemistry and represents and warrants to the
 licensee that it is not a competitor of Gaussian, Inc. and that
 it will not use this program in any manner prohibited above.
 ---------------------------------------------------------------
  

 Cite this work as:
 Gaussian 16, Revision B.01,
 M. J. Frisch, G. W. Trucks, H. B. Schlegel, G. E. Scuseria, 
 M. A. Robb, J. R. Cheeseman, G. Scalmani, V. Barone, 
 G. A. Petersson, H. Nakatsuji, X. Li, M. Caricato, A. V. Marenich, 
 J. Bloino, B. G. Janesko, R. Gomperts, B. Mennucci, H. P. Hratchian, 
 J. V. Ortiz, A. F. Izmaylov, J. L. Sonnenberg, D. Williams-Young, 
 F. Ding, F. Lipparini, F. Egidi, J. Goings, B. Peng, A. Petrone, 
 T. Henderson, D. Ranasinghe, V. G. Zakrzewski, J. Gao, N. Rega, 
 G. Zheng, W. Liang, M. Hada, M. Ehara, K. Toyota, R. Fukuda, 
 J. Hasegawa, M. Ishida, T. Nakajima, Y. Honda, O. Kitao, H. Nakai, 
 T. Vreven, K. Throssell, J. A. Montgomery, Jr., J. E. Peralta, 
 F. Ogliaro, M. J. Bearpark, J. J. Heyd, E. N. Brothers, K. N. Kudin, 
 V. N. Staroverov, T. A. Keith, R. Kobayashi, J. Normand, 
 K. Raghavachari, A. P. Rendell, J. C. Burant, S. S. Iyengar, 
 J. Tomasi, M. Cossi, J. M. Millam, M. Klene, C. Adamo, R. Cammi, 
 J. W. Ochterski, R. L. Martin, K. Morokuma, O. Farkas, 
 J. B. Foresman, and D. J. Fox, Gaussian, Inc., Wallingford CT, 2016.
 
 ******************************************
 Gaussian 16:  ES64L-G16RevB.01 20-Dec-2017
                13-Feb-2021 
 ******************************************
 %NProcShared=52
 Will use up to   52 processors via shared memory.
 %mem=16GB
 %chk=3_1.chk
 ----------------------------------------------------------------------
 # B3LYP/6-31G(d,p) empiricaldispersion=GD3BJ int=(grid=fine) opt freq=
 noraman
 ----------------------------------------------------------------------
 1/18=20,19=15,26=3,38=1/1,3;
 2/9=110,12=2,17=6,18=5,40=1/2;
 3/5=1,6=6,7=101,11=2,25=1,30=1,71=1,74=-5,75=-4,124=41/1,2,3;
 4//1;
 5/5=2,38=5/2;
 6/7=2,8=2,9=2,10=2,28=1/1;
 7//1,2,3,16;
 1/18=20,19=15,26=3/3(2);
 2/9=110/2;
 99//99;
 2/9=110/2;
 3/5=1,6=6,7=101,11=2,25=1,30=1,71=1,74=-5,75=-4,124=41/1,2,3;
 4/5=5,16=3,69=1/1;
 5/5=2,38=5/2;
 7//1,2,3,16;
 1/18=20,19=15,26=3/3(-5);
 2/9=110/2;
 6/7=2,8=2,9=2,10=2,19=2,28=1/1;
 99/9=1/99;
 -------
 3_1.xyz
 -------
 Symbolic Z-matrix:
 Charge =  0 Multiplicity = 1
 Br                   -1.7564   -1.5105   -0.5025 
 C                    -0.6727    0.033     0.0911 
 C                     0.6385   -0.0505    0.3781 
 H                    -1.2454    0.9474    0.1597 
 H                     1.1545    0.8453    0.6963 
 C                     1.4913   -1.3031    0.3001 
 H                     2.3086   -1.1585   -0.4067 
 H                     1.916    -1.5307    1.2779 
 H                     0.9212   -2.1735   -0.0251 
 

 GradGradGradGradGradGradGradGradGradGradGradGradGradGradGradGradGradGrad
 Berny optimization.
 Initialization pass.
                           ----------------------------
                           !    Initial Parameters    !
                           ! (Angstroms and Degrees)  !
 --------------------------                            --------------------------
 ! Name  Definition              Value          Derivative Info.                !
 --------------------------------------------------------------------------------
 ! R1    R(1,2)                  1.9772         estimate D2E/DX2                !
 ! R2    R(2,3)                  1.3448         estimate D2E/DX2                !
 ! R3    R(2,4)                  1.0811         estimate D2E/DX2                !
 ! R4    R(3,5)                  1.0816         estimate D2E/DX2                !
 ! R5    R(3,6)                  1.5174         estimate D2E/DX2                !
 ! R6    R(6,7)                  1.0902         estimate D2E/DX2                !
 ! R7    R(6,8)                  1.0901         estimate D2E/DX2                !
 ! R8    R(6,9)                  1.0901         estimate D2E/DX2                !
 ! A1    A(1,2,3)              123.3671         estimate D2E/DX2                !
 ! A2    A(1,2,4)              112.8911         estimate D2E/DX2                !
 ! A3    A(3,2,4)              123.7419         estimate D2E/DX2                !
 ! A4    A(2,3,5)              118.4556         estimate D2E/DX2                !
 ! A5    A(2,3,6)              126.0336         estimate D2E/DX2                !
 ! A6    A(5,3,6)              115.5109         estimate D2E/DX2                !
 ! A7    A(3,6,7)              110.1933         estimate D2E/DX2                !
 ! A8    A(3,6,8)              110.1954         estimate D2E/DX2                !
 ! A9    A(3,6,9)              112.367          estimate D2E/DX2                !
 ! A10   A(7,6,8)              108.4919         estimate D2E/DX2                !
 ! A11   A(7,6,9)              107.7322         estimate D2E/DX2                !
 ! A12   A(8,6,9)              107.736          estimate D2E/DX2                !
 ! D1    D(1,2,3,5)           -179.9997         estimate D2E/DX2                !
 ! D2    D(1,2,3,6)             -0.0081         estimate D2E/DX2                !
 ! D3    D(4,2,3,5)              0.0054         estimate D2E/DX2                !
 ! D4    D(4,2,3,6)            179.9971         estimate D2E/DX2                !
 ! D5    D(2,3,6,7)            120.1581         estimate D2E/DX2                !
 ! D6    D(2,3,6,8)           -120.1479         estimate D2E/DX2                !
 ! D7    D(2,3,6,9)              0.0083         estimate D2E/DX2                !
 ! D8    D(5,3,6,7)            -59.8501         estimate D2E/DX2                !
 ! D9    D(5,3,6,8)             59.844          estimate D2E/DX2                !
 ! D10   D(5,3,6,9)           -179.9999         estimate D2E/DX2                !
 --------------------------------------------------------------------------------
 Trust Radius=3.00D-01 FncErr=1.00D-07 GrdErr=1.00D-06 EigMax=2.50D+02 EigMin=1.00D-04
 Number of steps in this run=     40 maximum allowed number of steps=    100.
 GradGradGradGradGradGradGradGradGradGradGradGradGradGradGradGradGradGrad

                          Input orientation:                          
 ---------------------------------------------------------------------
 Center     Atomic      Atomic             Coordinates (Angstroms)
 Number     Number       Type             X           Y           Z
 ---------------------------------------------------------------------
      1         35           0       -1.756400   -1.510500   -0.502500
      2          6           0       -0.672700    0.033000    0.091100
      3          6           0        0.638500   -0.050500    0.378100
      4          1           0       -1.245400    0.947400    0.159700
      5          1           0        1.154500    0.845300    0.696300
      6          6           0        1.491300   -1.303100    0.300100
      7          1           0        2.308600   -1.158500   -0.406700
      8          1           0        1.916000   -1.530700    1.277900
      9          1           0        0.921200   -2.173500   -0.025100
 ---------------------------------------------------------------------
                    Distance matrix (angstroms):
                    1          2          3          4          5
     1  Br   0.000000
     2  C    1.977159   0.000000
     3  C    2.939830   1.344837   0.000000
     4  H    2.596325   1.081119   2.143031   0.000000
     5  H    3.931953   2.089200   1.081649   2.461277   0.000000
     6  C    3.351826   2.551811   1.517352   3.545982   2.210437
     7  H    4.081336   3.248942   2.152396   4.169717   2.561986
     8  H    4.081269   3.248849   2.152356   4.169628   2.561936
     9  H    2.799468   2.724456   2.179362   3.803725   3.112555
                    6          7          8          9
     6  C    0.000000
     7  H    1.090163   0.000000
     8  H    1.090076   1.769335   0.000000
     9  H    1.090122   1.760887   1.760860   0.000000
 Stoichiometry    C3H5Br
 Framework group  C1[X(C3H5Br)]
 Deg. of freedom    21
 Full point group                 C1      NOp   1
 Largest Abelian subgroup         C1      NOp   1
 Largest concise Abelian subgroup C1      NOp   1
                         Standard orientation:                         
 ---------------------------------------------------------------------
 Center     Atomic      Atomic             Coordinates (Angstroms)
 Number     Number       Type             X           Y           Z
 ---------------------------------------------------------------------
      1         35           0        1.056329   -0.141021    0.000002
      2          6           0       -0.513228    1.061331   -0.000027
      3          6           0       -1.783421    0.619519    0.000040
      4          1           0       -0.241392    2.107717   -0.000023
      5          1           0       -2.582613    1.348393    0.000013
      6          6           0       -2.223362   -0.832655   -0.000026
      7          1           0       -2.824342   -1.043828    0.884668
      8          1           0       -2.824283   -1.043772   -0.884666
      9          1           0       -1.378836   -1.521959    0.000007
 ---------------------------------------------------------------------
 Rotational constants (GHZ):          12.5508308           2.3822712           2.0275727
 Standard basis: 6-31G(d,p) (6D, 7F)
 There are   100 symmetry adapted cartesian basis functions of A   symmetry.
 There are   100 symmetry adapted basis functions of A   symmetry.
   100 basis functions,   202 primitive gaussians,   100 cartesian basis functions
    29 alpha electrons       29 beta electrons
       nuclear repulsion energy       218.4438210315 Hartrees.
 NAtoms=    9 NActive=    9 NUniq=    9 SFac= 1.00D+00 NAtFMM=   60 NAOKFM=F Big=F
 Integral buffers will be    131072 words long.
 Raffenetti 2 integral format.
 Two-electron integral symmetry is turned on.
 Nuclear repulsion after empirical dispersion term =      218.4318108353 Hartrees.
 One-electron integrals computed using PRISM.
 NBasis=   100 RedAO= T EigKep=  7.51D-04  NBF=   100
 NBsUse=   100 1.00D-06 EigRej= -1.00D+00 NBFU=   100
 ExpMin= 1.43D-01 ExpMax= 5.74D+05 ExpMxC= 5.74D+03 IAcc=2 IRadAn=         4 AccDes= 0.00D+00
 Harris functional with IExCor=  402 and IRadAn=       4 diagonalized for initial guess.
 HarFok:  IExCor=  402 AccDes= 0.00D+00 IRadAn=         4 IDoV= 1 UseB2=F ITyADJ=14
 ICtDFT=  3500011 ScaDFX=  1.000000  1.000000  1.000000  1.000000
 FoFCou: FMM=F IPFlag=           0 FMFlag=      100000 FMFlg1=           0
         NFxFlg=           0 DoJE=T BraDBF=F KetDBF=T FulRan=T
         wScrn=  0.000000 ICntrl=       500 IOpCl=  0 I1Cent=   200000004 NGrid=           0
         NMat0=    1 NMatS0=      1 NMatT0=    0 NMatD0=    1 NMtDS0=    0 NMtDT0=    0
 Petite list used in FoFCou.
 Keep R1 ints in memory in canonical form, NReq=60807049.
 Requested convergence on RMS density matrix=1.00D-08 within 128 cycles.
 Requested convergence on MAX density matrix=1.00D-06.
 Requested convergence on             energy=1.00D-06.
 No special actions if energy rises.
 Integral accuracy reduced to 1.0D-05 until final iterations.
 EnCoef did   100 forward-backward iterations
 Initial convergence to 1.0D-05 achieved.  Increase integral accuracy.
 SCF Done:  E(RB3LYP) =  -2689.03107556     A.U. after   14 cycles
            NFock= 14  Conv=0.30D-08     -V/T= 2.0064

 **********************************************************************

            Population analysis using the SCF Density.

 **********************************************************************

 Orbital symmetries:
       Occupied  (A) (A) (A) (A) (A) (A) (A) (A) (A) (A) (A) (A)
                 (A) (A) (A) (A) (A) (A) (A) (A) (A) (A) (A) (A)
                 (A) (A) (A) (A) (A)
       Virtual   (A) (A) (A) (A) (A) (A) (A) (A) (A) (A) (A) (A)
                 (A) (A) (A) (A) (A) (A) (A) (A) (A) (A) (A) (A)
                 (A) (A) (A) (A) (A) (A) (A) (A) (A) (A) (A) (A)
                 (A) (A) (A) (A) (A) (A) (A) (A) (A) (A) (A) (A)
                 (A) (A) (A) (A) (A) (A) (A) (A) (A) (A) (A) (A)
                 (A) (A) (A) (A) (A) (A) (A) (A) (A) (A) (A)
 The electronic state is 1-A.
 Alpha  occ. eigenvalues -- -482.90473 -61.86693 -56.38768 -56.38394 -56.38392
 Alpha  occ. eigenvalues --  -10.24293 -10.21209 -10.18969  -8.57816  -6.53194
 Alpha  occ. eigenvalues --   -6.51944  -6.51909  -2.64758  -2.64411  -2.64386
 Alpha  occ. eigenvalues --   -2.63389  -2.63388  -0.81616  -0.75265  -0.68425
 Alpha  occ. eigenvalues --   -0.55149  -0.48758  -0.42222  -0.41600  -0.38310
 Alpha  occ. eigenvalues --   -0.35482  -0.31931  -0.28010  -0.24611
 Alpha virt. eigenvalues --   -0.00160   0.00309   0.10349   0.13224   0.16339
 Alpha virt. eigenvalues --    0.16978   0.17269   0.25596   0.28224   0.33572
 Alpha virt. eigenvalues --    0.43089   0.45911   0.46481   0.47318   0.47945
 Alpha virt. eigenvalues --    0.49528   0.51577   0.54658   0.58371   0.59300
 Alpha virt. eigenvalues --    0.61802   0.65730   0.68427   0.74153   0.77097
 Alpha virt. eigenvalues --    0.83498   0.84209   0.85871   0.87282   0.88774
 Alpha virt. eigenvalues --    0.90360   0.95638   1.09152   1.25003   1.30399
 Alpha virt. eigenvalues --    1.36037   1.37266   1.55658   1.62245   1.64602
 Alpha virt. eigenvalues --    1.78088   1.80062   1.89062   1.94657   2.03961
 Alpha virt. eigenvalues --    2.04045   2.07462   2.12046   2.19966   2.24901
 Alpha virt. eigenvalues --    2.35580   2.37562   2.41050   2.49881   2.57498
 Alpha virt. eigenvalues --    2.62557   2.64408   2.74516   2.86985   2.87601
 Alpha virt. eigenvalues --    3.00125   3.21066   3.26370   3.42566   3.45604
 Alpha virt. eigenvalues --    3.52869   4.12192   4.36460   4.54257   8.61908
 Alpha virt. eigenvalues --   72.90135
          Condensed to atoms (all electrons):
               1          2          3          4          5          6
     1  Br  34.947343   0.274915  -0.055702  -0.045392   0.003846  -0.016112
     2  C    0.274915   4.917853   0.635466   0.377129  -0.035870  -0.044401
     3  C   -0.055702   0.635466   4.835047  -0.038387   0.374881   0.385774
     4  H   -0.045392   0.377129  -0.038387   0.570307  -0.005683   0.004346
     5  H    0.003846  -0.035870   0.374881  -0.005683   0.597143  -0.047733
     6  C   -0.016112  -0.044401   0.385774   0.004346  -0.047733   4.926084
     7  H    0.000667   0.000926  -0.032112  -0.000135  -0.001231   0.378713
     8  H    0.000667   0.000925  -0.032113  -0.000135  -0.001231   0.378730
     9  H    0.013893  -0.010273  -0.030996   0.000211   0.004214   0.389281
               7          8          9
     1  Br   0.000667   0.000667   0.013893
     2  C    0.000926   0.000925  -0.010273
     3  C   -0.032112  -0.032113  -0.030996
     4  H   -0.000135  -0.000135   0.000211
     5  H   -0.001231  -0.001231   0.004214
     6  C    0.378713   0.378730   0.389281
     7  H    0.588423  -0.031630  -0.028329
     8  H   -0.031630   0.588387  -0.028329
     9  H   -0.028329  -0.028329   0.551823
 Mulliken charges:
               1
     1  Br  -0.124126
     2  C   -0.116670
     3  C   -0.041858
     4  H    0.137737
     5  H    0.111662
     6  C   -0.354683
     7  H    0.124706
     8  H    0.124727
     9  H    0.138504
 Sum of Mulliken charges =  -0.00000
 Mulliken charges with hydrogens summed into heavy atoms:
               1
     1  Br  -0.124126
     2  C    0.021067
     3  C    0.069804
     6  C    0.033255
 Electronic spatial extent (au):  <R**2>=            579.9525
 Charge=              0.0000 electrons
 Dipole moment (field-independent basis, Debye):
    X=             -1.7735    Y=              0.5492    Z=             -0.0001  Tot=              1.8565
 Quadrupole moment (field-independent basis, Debye-Ang):
   XX=            -33.7122   YY=            -34.2480   ZZ=            -38.6888
   XY=             -0.7988   XZ=              0.0002   YZ=             -0.0000
 Traceless Quadrupole moment (field-independent basis, Debye-Ang):
   XX=              1.8375   YY=              1.3017   ZZ=             -3.1391
   XY=             -0.7988   XZ=              0.0002   YZ=             -0.0000
 Octapole moment (field-independent basis, Debye-Ang**2):
  XXX=             25.1407  YYY=              0.3807  ZZZ=             -0.0002  XYY=              9.8203
  XXY=             -3.0073  XXZ=             -0.0004  XZZ=             10.7385  YZZ=             -3.0929
  YYZ=             -0.0001  XYZ=             -0.0001
 Hexadecapole moment (field-independent basis, Debye-Ang**3):
 XXXX=           -493.3941 YYYY=           -142.3900 ZZZZ=            -48.4654 XXXY=            -13.6731
 XXXZ=              0.0022 YYYX=             -8.4259 YYYZ=             -0.0000 ZZZX=              0.0008
 ZZZY=              0.0001 XXYY=           -107.2753 XXZZ=            -94.1082 YYZZ=            -35.3757
 XXYZ=              0.0002 YYXZ=              0.0003 ZZXY=              1.1790
 N-N= 2.184318108353D+02 E-N=-6.841776325110D+03  KE= 2.672028177290D+03
 Calling FoFJK, ICntrl=      2127 FMM=F ISym2X=0 I1Cent= 0 IOpClX= 0 NMat=1 NMatS=1 NMatT=0.
 ***** Axes restored to original set *****
 -------------------------------------------------------------------
 Center     Atomic                   Forces (Hartrees/Bohr)
 Number     Number              X              Y              Z
 -------------------------------------------------------------------
      1       35           0.011223051    0.016897754    0.006350411
      2        6           0.011990733   -0.009711935    0.000640438
      3        6          -0.014415099   -0.021687955   -0.008137801
      4        1          -0.003224022   -0.001599108   -0.001104173
      5        1          -0.001540907    0.006360491    0.001044447
      6        6          -0.008757707    0.007135057   -0.000520755
      7        1           0.004210666    0.001064186   -0.000663924
      8        1           0.003435455    0.000299244    0.002795144
      9        1          -0.002922169    0.001242267   -0.000403789
 -------------------------------------------------------------------
 Cartesian Forces:  Max     0.021687955 RMS     0.007864446

 GradGradGradGradGradGradGradGradGradGradGradGradGradGradGradGradGradGrad
 Berny optimization.
 FormGI is forming the generalized inverse of G from B-inverse, IUseBI=4.
 Internal  Forces:  Max     0.021234398 RMS     0.006244179
 Search for a local minimum.
 Step number   1 out of a maximum of   40
 All quantities printed in internal units (Hartrees-Bohrs-Radians)
 Mixed Optimization -- RFO/linear search
 Second derivative matrix not updated -- first step.
 ITU=  0
     Eigenvalues ---    0.00536   0.01478   0.02818   0.02818   0.07004
     Eigenvalues ---    0.07233   0.14947   0.16000   0.16000   0.16000
     Eigenvalues ---    0.16000   0.16000   0.22000   0.22000   0.30623
     Eigenvalues ---    0.34794   0.34799   0.34804   0.35796   0.35859
     Eigenvalues ---    0.56135
 RFO step:  Lambda=-4.97287233D-03 EMin= 5.36407258D-03
 Linear search not attempted -- first point.
 Iteration  1 RMS(Cart)=  0.03026348 RMS(Int)=  0.00018998
 Iteration  2 RMS(Cart)=  0.00026564 RMS(Int)=  0.00001020
 Iteration  3 RMS(Cart)=  0.00000002 RMS(Int)=  0.00001020
 Variable       Old X    -DE/DX   Delta X   Delta X   Delta X     New X
                                 (Linear)    (Quad)   (Total)
    R1        3.73629  -0.02123   0.00000  -0.13749  -0.13749   3.59880
    R2        2.54137  -0.02039   0.00000  -0.03600  -0.03600   2.50537
    R3        2.04302   0.00028   0.00000   0.00076   0.00076   2.04378
    R4        2.04402   0.00484   0.00000   0.01333   0.01333   2.05735
    R5        2.86738  -0.01039   0.00000  -0.03339  -0.03339   2.83399
    R6        2.06011   0.00373   0.00000   0.01058   0.01058   2.07068
    R7        2.05994   0.00379   0.00000   0.01073   0.01073   2.07067
    R8        2.06003   0.00064   0.00000   0.00182   0.00182   2.06186
    A1        2.15316  -0.00132   0.00000  -0.00588  -0.00588   2.14728
    A2        1.97032  -0.00320   0.00000  -0.02046  -0.02046   1.94986
    A3        2.15970   0.00452   0.00000   0.02634   0.02634   2.18604
    A4        2.06744  -0.00705   0.00000  -0.03884  -0.03884   2.02860
    A5        2.19970   0.00481   0.00000   0.02136   0.02136   2.22106
    A6        2.01604   0.00224   0.00000   0.01748   0.01748   2.03353
    A7        1.92324   0.00077   0.00000   0.00329   0.00331   1.92655
    A8        1.92327   0.00077   0.00000   0.00326   0.00328   1.92655
    A9        1.96117  -0.00410   0.00000  -0.02199  -0.02196   1.93921
   A10        1.89354  -0.00182   0.00000  -0.01663  -0.01663   1.87691
   A11        1.88028   0.00223   0.00000   0.01623   0.01626   1.89654
   A12        1.88035   0.00223   0.00000   0.01620   0.01623   1.89658
    D1       -3.14159   0.00000   0.00000  -0.00000  -0.00000  -3.14159
    D2       -0.00014   0.00000   0.00000   0.00012   0.00012  -0.00003
    D3        0.00009  -0.00000   0.00000  -0.00007  -0.00007   0.00003
    D4        3.14154   0.00000   0.00000   0.00005   0.00005  -3.14159
    D5        2.09715   0.00064   0.00000   0.00818   0.00817   2.10532
    D6       -2.09698  -0.00064   0.00000  -0.00829  -0.00828  -2.10525
    D7        0.00014  -0.00000   0.00000  -0.00009  -0.00009   0.00006
    D8       -1.04458   0.00064   0.00000   0.00829   0.00828  -1.03630
    D9        1.04448  -0.00063   0.00000  -0.00817  -0.00816   1.03631
   D10       -3.14159  -0.00000   0.00000   0.00003   0.00003  -3.14156
         Item               Value     Threshold  Converged?
 Maximum Force            0.021234     0.000450     NO 
 RMS     Force            0.006244     0.000300     NO 
 Maximum Displacement     0.096323     0.001800     NO 
 RMS     Displacement     0.030345     0.001200     NO 
 Predicted change in Energy=-2.552826D-03
 GradGradGradGradGradGradGradGradGradGradGradGradGradGradGradGradGradGrad

                          Input orientation:                          
 ---------------------------------------------------------------------
 Center     Atomic      Atomic             Coordinates (Angstroms)
 Number     Number       Type             X           Y           Z
 ---------------------------------------------------------------------
      1         35           0       -1.713738   -1.459528   -0.481275
      2          6           0       -0.661684    0.021145    0.091028
      3          6           0        0.630638   -0.075722    0.370728
      4          1           0       -1.247893    0.927782    0.154757
      5          1           0        1.124264    0.841187    0.688349
      6          6           0        1.485565   -1.305718    0.298164
      7          1           0        2.313148   -1.154401   -0.403902
      8          1           0        1.920939   -1.526308    1.279216
      9          1           0        0.904362   -2.169538   -0.028164
 ---------------------------------------------------------------------
                    Distance matrix (angstroms):
                    1          2          3          4          5
     1  Br   0.000000
     2  C    1.904400   0.000000
     3  C    2.852530   1.325787   0.000000
     4  H    2.514120   1.081523   2.140688   0.000000
     5  H    3.836088   2.053989   1.088703   2.432971   0.000000
     6  C    3.296471   2.532617   1.499685   3.532829   2.211783
     7  H    4.039170   3.236740   2.143464   4.162763   2.566871
     8  H    4.039142   3.236718   2.143461   4.162747   2.566875
     9  H    2.750249   2.695514   2.148977   3.776115   3.102614
                    6          7          8          9
     6  C    0.000000
     7  H    1.095759   0.000000
     8  H    1.095752   1.767775   0.000000
     9  H    1.091087   1.776615   1.776631   0.000000
 Stoichiometry    C3H5Br
 Framework group  C1[X(C3H5Br)]
 Deg. of freedom    21
 Full point group                 C1      NOp   1
 Largest Abelian subgroup         C1      NOp   1
 Largest concise Abelian subgroup C1      NOp   1
                         Standard orientation:                         
 ---------------------------------------------------------------------
 Center     Atomic      Atomic             Coordinates (Angstroms)
 Number     Number       Type             X           Y           Z
 ---------------------------------------------------------------------
      1         35           0        1.027699   -0.145515    0.000000
      2          6           0       -0.463748    1.038685   -0.000005
      3          6           0       -1.720873    0.617558    0.000007
      4          1           0       -0.152410    2.074427    0.000004
      5          1           0       -2.487342    1.390732    0.000000
      6          6           0       -2.202610   -0.802647   -0.000004
      7          1           0       -2.820723   -0.995992    0.883874
      8          1           0       -2.820688   -0.995992   -0.883900
      9          1           0       -1.364903   -1.501731    0.000033
 ---------------------------------------------------------------------
 Rotational constants (GHZ):          12.9943925           2.4937181           2.1198477
 Standard basis: 6-31G(d,p) (6D, 7F)
 There are   100 symmetry adapted cartesian basis functions of A   symmetry.
 There are   100 symmetry adapted basis functions of A   symmetry.
   100 basis functions,   202 primitive gaussians,   100 cartesian basis functions
    29 alpha electrons       29 beta electrons
       nuclear repulsion energy       223.3057323947 Hartrees.
 NAtoms=    9 NActive=    9 NUniq=    9 SFac= 1.00D+00 NAtFMM=   60 NAOKFM=F Big=F
 Integral buffers will be    131072 words long.
 Raffenetti 2 integral format.
 Two-electron integral symmetry is turned on.
 Nuclear repulsion after empirical dispersion term =      223.2935724165 Hartrees.
 One-electron integrals computed using PRISM.
 NBasis=   100 RedAO= T EigKep=  7.50D-04  NBF=   100
 NBsUse=   100 1.00D-06 EigRej= -1.00D+00 NBFU=   100
 Initial guess from the checkpoint file:  "3_1.chk"
 B after Tr=     0.000000   -0.000000    0.000000
         Rot=    0.999979    0.000002   -0.000000    0.006436 Ang=   0.74 deg.
 ExpMin= 1.43D-01 ExpMax= 5.74D+05 ExpMxC= 5.74D+03 IAcc=2 IRadAn=         4 AccDes= 0.00D+00
 Harris functional with IExCor=  402 and IRadAn=       4 diagonalized for initial guess.
 HarFok:  IExCor=  402 AccDes= 0.00D+00 IRadAn=         4 IDoV= 1 UseB2=F ITyADJ=14
 ICtDFT=  3500011 ScaDFX=  1.000000  1.000000  1.000000  1.000000
 FoFCou: FMM=F IPFlag=           0 FMFlag=      100000 FMFlg1=           0
         NFxFlg=           0 DoJE=T BraDBF=F KetDBF=T FulRan=T
         wScrn=  0.000000 ICntrl=       500 IOpCl=  0 I1Cent=   200000004 NGrid=           0
         NMat0=    1 NMatS0=      1 NMatT0=    0 NMatD0=    1 NMtDS0=    0 NMtDT0=    0
 Petite list used in FoFCou.
 Keep R1 ints in memory in canonical form, NReq=60807049.
 Requested convergence on RMS density matrix=1.00D-08 within 128 cycles.
 Requested convergence on MAX density matrix=1.00D-06.
 Requested convergence on             energy=1.00D-06.
 No special actions if energy rises.
 Integral accuracy reduced to 1.0D-05 until final iterations.
 Initial convergence to 1.0D-05 achieved.  Increase integral accuracy.
 SCF Done:  E(RB3LYP) =  -2689.03332684     A.U. after   12 cycles
            NFock= 12  Conv=0.36D-08     -V/T= 2.0063
 Calling FoFJK, ICntrl=      2127 FMM=F ISym2X=0 I1Cent= 0 IOpClX= 0 NMat=1 NMatS=1 NMatT=0.
 ***** Axes restored to original set *****
 -------------------------------------------------------------------
 Center     Atomic                   Forces (Hartrees/Bohr)
 Number     Number              X              Y              Z
 -------------------------------------------------------------------
      1       35          -0.003289566   -0.002301668   -0.001274782
      2        6          -0.003406491    0.000689229   -0.000643179
      3        6           0.005859451   -0.001545254    0.001026032
      4        1           0.001288650    0.000757834    0.000468197
      5        1          -0.000355995    0.001120308    0.000164101
      6        6          -0.001911971    0.001804803   -0.000053064
      7        1           0.000643625   -0.000248323    0.000411006
      8        1           0.000777476   -0.000124101   -0.000158532
      9        1           0.000394821   -0.000152829    0.000060221
 -------------------------------------------------------------------
 Cartesian Forces:  Max     0.005859451 RMS     0.001724142

 GradGradGradGradGradGradGradGradGradGradGradGradGradGradGradGradGradGrad
 Berny optimization.
 Using GEDIIS/GDIIS optimizer.
 FormGI is forming the generalized inverse of G from B-inverse, IUseBI=4.
 Internal  Forces:  Max     0.005528600 RMS     0.001758268
 Search for a local minimum.
 Step number   2 out of a maximum of   40
 All quantities printed in internal units (Hartrees-Bohrs-Radians)
 Mixed Optimization -- RFO/linear search
 Update second derivatives using D2CorX and points    1    2
 DE= -2.25D-03 DEPred=-2.55D-03 R= 8.82D-01
 TightC=F SS=  1.41D+00  RLast= 1.63D-01 DXNew= 5.0454D-01 4.9039D-01
 Trust test= 8.82D-01 RLast= 1.63D-01 DXMaxT set to 4.90D-01
 ITU=  1  0
 Use linear search instead of GDIIS.
     Eigenvalues ---    0.00536   0.01447   0.02818   0.02818   0.07104
     Eigenvalues ---    0.07195   0.15013   0.15813   0.16000   0.16000
     Eigenvalues ---    0.16000   0.17245   0.21653   0.23489   0.30113
     Eigenvalues ---    0.34705   0.34799   0.34801   0.35665   0.35860
     Eigenvalues ---    0.60089
 RFO step:  Lambda=-2.34321276D-04 EMin= 5.36407258D-03
 Quartic linear search produced a step of -0.10870.
 Iteration  1 RMS(Cart)=  0.01828794 RMS(Int)=  0.00013792
 Iteration  2 RMS(Cart)=  0.00019637 RMS(Int)=  0.00000452
 Iteration  3 RMS(Cart)=  0.00000003 RMS(Int)=  0.00000452
 Variable       Old X    -DE/DX   Delta X   Delta X   Delta X     New X
                                 (Linear)    (Quad)   (Total)
    R1        3.59880   0.00401   0.01495   0.00001   0.01495   3.61375
    R2        2.50537   0.00553   0.00391   0.00301   0.00693   2.51230
    R3        2.04378  -0.00004  -0.00008   0.00001  -0.00007   2.04371
    R4        2.05735   0.00083  -0.00145   0.00423   0.00278   2.06013
    R5        2.83399  -0.00114   0.00363  -0.00879  -0.00516   2.82883
    R6        2.07068   0.00019  -0.00115   0.00222   0.00107   2.07175
    R7        2.07067   0.00020  -0.00117   0.00225   0.00109   2.07176
    R8        2.06186  -0.00012  -0.00020  -0.00002  -0.00021   2.06164
    A1        2.14728   0.00422   0.00064   0.01610   0.01674   2.16402
    A2        1.94986  -0.00054   0.00222  -0.00335  -0.00113   1.94874
    A3        2.18604  -0.00368  -0.00286  -0.01275  -0.01561   2.17043
    A4        2.02860  -0.00210   0.00422  -0.01648  -0.01225   2.01634
    A5        2.22106   0.00240  -0.00232   0.01329   0.01097   2.23203
    A6        2.03353  -0.00030  -0.00190   0.00318   0.00128   2.03481
    A7        1.92655   0.00042  -0.00036   0.00217   0.00180   1.92835
    A8        1.92655   0.00042  -0.00036   0.00216   0.00179   1.92834
    A9        1.93921   0.00059   0.00239   0.00098   0.00336   1.94257
   A10        1.87691  -0.00093   0.00181  -0.01100  -0.00919   1.86772
   A11        1.89654  -0.00028  -0.00177   0.00268   0.00090   1.89744
   A12        1.89658  -0.00028  -0.00176   0.00265   0.00087   1.89745
    D1       -3.14159   0.00000   0.00000  -0.00001  -0.00001   3.14159
    D2       -0.00003   0.00000  -0.00001   0.00006   0.00005   0.00002
    D3        0.00003  -0.00000   0.00001  -0.00005  -0.00004  -0.00001
    D4       -3.14159  -0.00000  -0.00001   0.00002   0.00001  -3.14158
    D5        2.10532   0.00032  -0.00089   0.00541   0.00453   2.10985
    D6       -2.10525  -0.00032   0.00090  -0.00549  -0.00459  -2.10984
    D7        0.00006  -0.00000   0.00001  -0.00006  -0.00005   0.00001
    D8       -1.03630   0.00032  -0.00090   0.00548   0.00458  -1.03172
    D9        1.03631  -0.00032   0.00089  -0.00542  -0.00454   1.03177
   D10       -3.14156  -0.00000  -0.00000   0.00000   0.00000  -3.14156
         Item               Value     Threshold  Converged?
 Maximum Force            0.005529     0.000450     NO 
 RMS     Force            0.001758     0.000300     NO 
 Maximum Displacement     0.074178     0.001800     NO 
 RMS     Displacement     0.018414     0.001200     NO 
 Predicted change in Energy=-1.541825D-04
 GradGradGradGradGradGradGradGradGradGradGradGradGradGradGradGradGradGrad

                          Input orientation:                          
 ---------------------------------------------------------------------
 Center     Atomic      Atomic             Coordinates (Angstroms)
 Number     Number       Type             X           Y           Z
 ---------------------------------------------------------------------
      1         35           0       -1.752991   -1.448747   -0.488040
      2          6           0       -0.666821    0.015711    0.088621
      3          6           0        0.628972   -0.084992    0.368307
      4          1           0       -1.236816    0.932153    0.158299
      5          1           0        1.114300    0.838263    0.685382
      6          6           0        1.492051   -1.306153    0.299576
      7          1           0        2.323357   -1.149703   -0.397835
      8          1           0        1.932285   -1.520560    1.280472
      9          1           0        0.921263   -2.177073   -0.025880
 ---------------------------------------------------------------------
                    Distance matrix (angstroms):
                    1          2          3          4          5
     1  Br   0.000000
     2  C    1.912313   0.000000
     3  C    2.875223   1.329453   0.000000
     4  H    2.520491   1.081487   2.135381   0.000000
     5  H    3.850804   2.050636   1.090174   2.411302   0.000000
     6  C    3.342301   2.540188   1.496952   3.532235   2.211348
     7  H    4.088298   3.245920   2.142785   4.161519   2.566552
     8  H    4.088283   3.245919   2.142785   4.161523   2.566569
     9  H    2.809926   2.709875   2.148865   3.789263   3.104095
                    6          7          8          9
     6  C    0.000000
     7  H    1.096325   0.000000
     8  H    1.096327   1.762722   0.000000
     9  H    1.090974   1.777557   1.777563   0.000000
 Stoichiometry    C3H5Br
 Framework group  C1[X(C3H5Br)]
 Deg. of freedom    21
 Full point group                 C1      NOp   1
 Largest Abelian subgroup         C1      NOp   1
 Largest concise Abelian subgroup C1      NOp   1
                         Standard orientation:                         
 ---------------------------------------------------------------------
 Center     Atomic      Atomic             Coordinates (Angstroms)
 Number     Number       Type             X           Y           Z
 ---------------------------------------------------------------------
      1         35           0        1.040799   -0.145461   -0.000000
      2          6           0       -0.468882    1.028338    0.000004
      3          6           0       -1.732222    0.614315   -0.000007
      4          1           0       -0.166953    2.066824    0.000008
      5          1           0       -2.485032    1.402830    0.000001
      6          6           0       -2.237847   -0.794659    0.000002
      7          1           0       -2.863651   -0.977727    0.881355
      8          1           0       -2.863628   -0.977744   -0.881367
      9          1           0       -1.415004   -1.511007    0.000024
 ---------------------------------------------------------------------
 Rotational constants (GHZ):          13.1660219           2.4328134           2.0798518
 Standard basis: 6-31G(d,p) (6D, 7F)
 There are   100 symmetry adapted cartesian basis functions of A   symmetry.
 There are   100 symmetry adapted basis functions of A   symmetry.
   100 basis functions,   202 primitive gaussians,   100 cartesian basis functions
    29 alpha electrons       29 beta electrons
       nuclear repulsion energy       221.9567610843 Hartrees.
 NAtoms=    9 NActive=    9 NUniq=    9 SFac= 1.00D+00 NAtFMM=   60 NAOKFM=F Big=F
 Integral buffers will be    131072 words long.
 Raffenetti 2 integral format.
 Two-electron integral symmetry is turned on.
 Nuclear repulsion after empirical dispersion term =      221.9446792167 Hartrees.
 One-electron integrals computed using PRISM.
 NBasis=   100 RedAO= T EigKep=  7.50D-04  NBF=   100
 NBsUse=   100 1.00D-06 EigRej= -1.00D+00 NBFU=   100
 Initial guess from the checkpoint file:  "3_1.chk"
 B after Tr=    -0.000000   -0.000000   -0.000000
         Rot=    0.999999    0.000001   -0.000000    0.001205 Ang=   0.14 deg.
 ExpMin= 1.43D-01 ExpMax= 5.74D+05 ExpMxC= 5.74D+03 IAcc=2 IRadAn=         4 AccDes= 0.00D+00
 Harris functional with IExCor=  402 and IRadAn=       4 diagonalized for initial guess.
 HarFok:  IExCor=  402 AccDes= 0.00D+00 IRadAn=         4 IDoV= 1 UseB2=F ITyADJ=14
 ICtDFT=  3500011 ScaDFX=  1.000000  1.000000  1.000000  1.000000
 FoFCou: FMM=F IPFlag=           0 FMFlag=      100000 FMFlg1=           0
         NFxFlg=           0 DoJE=T BraDBF=F KetDBF=T FulRan=T
         wScrn=  0.000000 ICntrl=       500 IOpCl=  0 I1Cent=   200000004 NGrid=           0
         NMat0=    1 NMatS0=      1 NMatT0=    0 NMatD0=    1 NMtDS0=    0 NMtDT0=    0
 Petite list used in FoFCou.
 Keep R1 ints in memory in canonical form, NReq=60807049.
 Requested convergence on RMS density matrix=1.00D-08 within 128 cycles.
 Requested convergence on MAX density matrix=1.00D-06.
 Requested convergence on             energy=1.00D-06.
 No special actions if energy rises.
 Integral accuracy reduced to 1.0D-05 until final iterations.
 Initial convergence to 1.0D-05 achieved.  Increase integral accuracy.
 SCF Done:  E(RB3LYP) =  -2689.03346496     A.U. after   11 cycles
            NFock= 11  Conv=0.44D-08     -V/T= 2.0063
 Calling FoFJK, ICntrl=      2127 FMM=F ISym2X=0 I1Cent= 0 IOpClX= 0 NMat=1 NMatS=1 NMatT=0.
 ***** Axes restored to original set *****
 -------------------------------------------------------------------
 Center     Atomic                   Forces (Hartrees/Bohr)
 Number     Number              X              Y              Z
 -------------------------------------------------------------------
      1       35           0.000354369   -0.000177448    0.000043214
      2        6          -0.000672538   -0.000338418   -0.000230769
      3        6           0.001017354   -0.000148066    0.000202296
      4        1           0.000471475    0.000375413    0.000192886
      5        1          -0.000375915    0.000168910   -0.000049742
      6        6          -0.000808117    0.000734300   -0.000024450
      7        1           0.000022670   -0.000196082    0.000066775
      8        1           0.000066289   -0.000154553   -0.000124814
      9        1          -0.000075585   -0.000264055   -0.000075395
 -------------------------------------------------------------------
 Cartesian Forces:  Max     0.001017354 RMS     0.000375691

 GradGradGradGradGradGradGradGradGradGradGradGradGradGradGradGradGradGrad
 Berny optimization.
 Using GEDIIS/GDIIS optimizer.
 FormGI is forming the generalized inverse of G from B-inverse, IUseBI=4.
 Internal  Forces:  Max     0.000911567 RMS     0.000333551
 Search for a local minimum.
 Step number   3 out of a maximum of   40
 All quantities printed in internal units (Hartrees-Bohrs-Radians)
 Mixed Optimization -- En-DIIS/RFO-DIIS
 Update second derivatives using D2CorX and points    1    2    3
 DE= -1.38D-04 DEPred=-1.54D-04 R= 8.96D-01
 TightC=F SS=  1.41D+00  RLast= 3.60D-02 DXNew= 8.2473D-01 1.0787D-01
 Trust test= 8.96D-01 RLast= 3.60D-02 DXMaxT set to 4.90D-01
 ITU=  1  1  0
 Use linear search instead of GDIIS.
     Eigenvalues ---    0.00536   0.01439   0.02818   0.02818   0.07055
     Eigenvalues ---    0.07114   0.13320   0.15878   0.16000   0.16000
     Eigenvalues ---    0.16002   0.17023   0.22077   0.26800   0.30407
     Eigenvalues ---    0.34714   0.34799   0.34898   0.35702   0.35875
     Eigenvalues ---    0.61078
 RFO step:  Lambda=-1.48974453D-05 EMin= 5.36407243D-03
 Quartic linear search produced a step of -0.04113.
 Iteration  1 RMS(Cart)=  0.00333145 RMS(Int)=  0.00000430
 Iteration  2 RMS(Cart)=  0.00000467 RMS(Int)=  0.00000024
 Iteration  3 RMS(Cart)=  0.00000000 RMS(Int)=  0.00000024
 Variable       Old X    -DE/DX   Delta X   Delta X   Delta X     New X
                                 (Linear)    (Quad)   (Total)
    R1        3.61375  -0.00006  -0.00061   0.00088   0.00027   3.61401
    R2        2.51230  -0.00015  -0.00028   0.00038   0.00009   2.51239
    R3        2.04371   0.00007   0.00000   0.00019   0.00019   2.04391
    R4        2.06013  -0.00004  -0.00011   0.00016   0.00004   2.06017
    R5        2.82883  -0.00057   0.00021  -0.00228  -0.00207   2.82676
    R6        2.07175  -0.00005  -0.00004  -0.00003  -0.00007   2.07168
    R7        2.07176  -0.00005  -0.00004  -0.00003  -0.00007   2.07168
    R8        2.06164   0.00026   0.00001   0.00069   0.00070   2.06234
    A1        2.16402  -0.00060  -0.00069  -0.00110  -0.00179   2.16223
    A2        1.94874   0.00091   0.00005   0.00482   0.00487   1.95360
    A3        2.17043  -0.00031   0.00064  -0.00372  -0.00308   2.16735
    A4        2.01634  -0.00003   0.00050  -0.00197  -0.00147   2.01488
    A5        2.23203  -0.00083  -0.00045  -0.00262  -0.00307   2.22896
    A6        2.03481   0.00087  -0.00005   0.00459   0.00454   2.03934
    A7        1.92835   0.00021  -0.00007   0.00146   0.00138   1.92973
    A8        1.92834   0.00021  -0.00007   0.00146   0.00139   1.92973
    A9        1.94257   0.00004  -0.00014   0.00046   0.00032   1.94289
   A10        1.86772  -0.00019   0.00038  -0.00179  -0.00141   1.86631
   A11        1.89744  -0.00014  -0.00004  -0.00087  -0.00090   1.89654
   A12        1.89745  -0.00015  -0.00004  -0.00088  -0.00091   1.89654
    D1        3.14159   0.00000   0.00000   0.00001   0.00001  -3.14159
    D2        0.00002  -0.00000  -0.00000  -0.00002  -0.00002  -0.00000
    D3       -0.00001   0.00000   0.00000   0.00001   0.00001   0.00000
    D4       -3.14158  -0.00000  -0.00000  -0.00002  -0.00002   3.14159
    D5        2.10985  -0.00001  -0.00019   0.00021   0.00002   2.10987
    D6       -2.10984   0.00001   0.00019  -0.00018   0.00001  -2.10984
    D7        0.00001   0.00000   0.00000   0.00001   0.00001   0.00002
    D8       -1.03172  -0.00001  -0.00019   0.00018  -0.00001  -1.03173
    D9        1.03177   0.00001   0.00019  -0.00021  -0.00002   1.03175
   D10       -3.14156  -0.00000  -0.00000  -0.00002  -0.00002  -3.14158
         Item               Value     Threshold  Converged?
 Maximum Force            0.000912     0.000450     NO 
 RMS     Force            0.000334     0.000300     NO 
 Maximum Displacement     0.010157     0.001800     NO 
 RMS     Displacement     0.003333     0.001200     NO 
 Predicted change in Energy=-7.770422D-06
 GradGradGradGradGradGradGradGradGradGradGradGradGradGradGradGradGradGrad

                          Input orientation:                          
 ---------------------------------------------------------------------
 Center     Atomic      Atomic             Coordinates (Angstroms)
 Number     Number       Type             X           Y           Z
 ---------------------------------------------------------------------
      1         35           0       -1.747617   -1.452666   -0.487659
      2          6           0       -0.666022    0.015457    0.088751
      3          6           0        0.629868   -0.083591    0.368813
      4          1           0       -1.234473    0.932930    0.159025
      5          1           0        1.112607    0.841138    0.685625
      6          6           0        1.490206   -1.305302    0.299333
      7          1           0        2.321992   -1.151404   -0.398015
      8          1           0        1.931133   -1.522048    1.279360
      9          1           0        0.917905   -2.175613   -0.026333
 ---------------------------------------------------------------------
                    Distance matrix (angstroms):
                    1          2          3          4          5
     1  Br   0.000000
     2  C    1.912454   0.000000
     3  C    2.874082   1.329502   0.000000
     4  H    2.524398   1.081588   2.133799   0.000000
     5  H    3.849547   2.049762   1.090197   2.407180   0.000000
     6  C    3.335351   2.537335   1.495857   3.528916   2.213371
     7  H    4.081729   3.244492   2.142786   4.159710   2.570430
     8  H    4.081711   3.244485   2.142788   4.159703   2.570438
     9  H    2.800086   2.706078   2.148409   3.785516   3.105734
                    6          7          8          9
     6  C    0.000000
     7  H    1.096288   0.000000
     8  H    1.096288   1.761742   0.000000
     9  H    1.091342   1.777249   1.777249   0.000000
 Stoichiometry    C3H5Br
 Framework group  C1[X(C3H5Br)]
 Deg. of freedom    21
 Full point group                 C1      NOp   1
 Largest Abelian subgroup         C1      NOp   1
 Largest concise Abelian subgroup C1      NOp   1
                         Standard orientation:                         
 ---------------------------------------------------------------------
 Center     Atomic      Atomic             Coordinates (Angstroms)
 Number     Number       Type             X           Y           Z
 ---------------------------------------------------------------------
      1         35           0        1.039468   -0.145086   -0.000000
      2          6           0       -0.469752    1.029537    0.000000
      3          6           0       -1.732599    0.613854    0.000002
      4          1           0       -0.172346    2.069432   -0.000003
      5          1           0       -2.485295    1.402511   -0.000003
      6          6           0       -2.231696   -0.796284   -0.000000
      7          1           0       -2.856894   -0.983511    0.880862
      8          1           0       -2.856870   -0.983520   -0.880879
      9          1           0       -1.405682   -1.509536    0.000014
 ---------------------------------------------------------------------
 Rotational constants (GHZ):          13.1413440           2.4400591           2.0844955
 Standard basis: 6-31G(d,p) (6D, 7F)
 There are   100 symmetry adapted cartesian basis functions of A   symmetry.
 There are   100 symmetry adapted basis functions of A   symmetry.
   100 basis functions,   202 primitive gaussians,   100 cartesian basis functions
    29 alpha electrons       29 beta electrons
       nuclear repulsion energy       222.0854348802 Hartrees.
 NAtoms=    9 NActive=    9 NUniq=    9 SFac= 1.00D+00 NAtFMM=   60 NAOKFM=F Big=F
 Integral buffers will be    131072 words long.
 Raffenetti 2 integral format.
 Two-electron integral symmetry is turned on.
 Nuclear repulsion after empirical dispersion term =      222.0733420413 Hartrees.
 One-electron integrals computed using PRISM.
 NBasis=   100 RedAO= T EigKep=  7.50D-04  NBF=   100
 NBsUse=   100 1.00D-06 EigRej= -1.00D+00 NBFU=   100
 Initial guess from the checkpoint file:  "3_1.chk"
 B after Tr=    -0.000000    0.000000   -0.000000
         Rot=    1.000000   -0.000000    0.000000   -0.000504 Ang=  -0.06 deg.
 Keep R1 ints in memory in canonical form, NReq=60807049.
 Requested convergence on RMS density matrix=1.00D-08 within 128 cycles.
 Requested convergence on MAX density matrix=1.00D-06.
 Requested convergence on             energy=1.00D-06.
 No special actions if energy rises.
 SCF Done:  E(RB3LYP) =  -2689.03347563     A.U. after    8 cycles
            NFock=  8  Conv=0.44D-08     -V/T= 2.0063
 Calling FoFJK, ICntrl=      2127 FMM=F ISym2X=0 I1Cent= 0 IOpClX= 0 NMat=1 NMatS=1 NMatT=0.
 ***** Axes restored to original set *****
 -------------------------------------------------------------------
 Center     Atomic                   Forces (Hartrees/Bohr)
 Number     Number              X              Y              Z
 -------------------------------------------------------------------
      1       35           0.000147941    0.000168995    0.000071762
      2        6          -0.000493878   -0.000194652   -0.000158065
      3        6           0.000426876    0.000028932    0.000106493
      4        1           0.000095152    0.000101105    0.000044414
      5        1          -0.000109769   -0.000042716   -0.000035200
      6        6          -0.000148360    0.000124746   -0.000006993
      7        1           0.000031489   -0.000096511   -0.000011265
      8        1           0.000032362   -0.000095132   -0.000016552
      9        1           0.000018186    0.000005232    0.000005406
 -------------------------------------------------------------------
 Cartesian Forces:  Max     0.000493878 RMS     0.000155392

 GradGradGradGradGradGradGradGradGradGradGradGradGradGradGradGradGradGrad
 Berny optimization.
 Using GEDIIS/GDIIS optimizer.
 FormGI is forming the generalized inverse of G from B-inverse, IUseBI=4.
 Internal  Forces:  Max     0.000273429 RMS     0.000085895
 Search for a local minimum.
 Step number   4 out of a maximum of   40
 All quantities printed in internal units (Hartrees-Bohrs-Radians)
 Mixed Optimization -- En-DIIS/RFO-DIIS
 Swapping is turned off.
 Update second derivatives using D2CorX and points    1    2    3    4
 DE= -1.07D-05 DEPred=-7.77D-06 R= 1.37D+00
 TightC=F SS=  1.41D+00  RLast= 9.00D-03 DXNew= 8.2473D-01 2.6995D-02
 Trust test= 1.37D+00 RLast= 9.00D-03 DXMaxT set to 4.90D-01
 ITU=  1  1  1  0
     Eigenvalues ---    0.00536   0.01436   0.02818   0.02818   0.07046
     Eigenvalues ---    0.07137   0.10484   0.15788   0.15996   0.16000
     Eigenvalues ---    0.16010   0.18619   0.22204   0.25489   0.30306
     Eigenvalues ---    0.34717   0.34799   0.35068   0.35840   0.35870
     Eigenvalues ---    0.62104
 En-DIIS/RFO-DIIS/Sim-DIIS IScMMF=       -3 using points:     4    3
 RFO step:  Lambda=-1.40649216D-06.
 DidBck=F Rises=F RFO-DIIS coefs:    1.27855   -0.27855
 Iteration  1 RMS(Cart)=  0.00071247 RMS(Int)=  0.00000048
 Iteration  2 RMS(Cart)=  0.00000042 RMS(Int)=  0.00000020
 Variable       Old X    -DE/DX   Delta X   Delta X   Delta X     New X
                                 (Linear)    (Quad)   (Total)
    R1        3.61401  -0.00022   0.00007  -0.00164  -0.00157   3.61245
    R2        2.51239   0.00027   0.00003   0.00066   0.00068   2.51308
    R3        2.04391   0.00003   0.00005   0.00006   0.00011   2.04402
    R4        2.06017  -0.00010   0.00001  -0.00027  -0.00026   2.05992
    R5        2.82676  -0.00001  -0.00058   0.00027  -0.00031   2.82645
    R6        2.07168   0.00002  -0.00002   0.00012   0.00010   2.07179
    R7        2.07168   0.00002  -0.00002   0.00012   0.00010   2.07179
    R8        2.06234  -0.00003   0.00019  -0.00025  -0.00006   2.06228
    A1        2.16223  -0.00004  -0.00050   0.00047  -0.00003   2.16220
    A2        1.95360   0.00013   0.00136  -0.00012   0.00123   1.95484
    A3        2.16735  -0.00009  -0.00086  -0.00035  -0.00121   2.16614
    A4        2.01488  -0.00007  -0.00041  -0.00056  -0.00097   2.01390
    A5        2.22896  -0.00006  -0.00085   0.00056  -0.00030   2.22867
    A6        2.03934   0.00013   0.00126   0.00001   0.00127   2.04061
    A7        1.92973   0.00010   0.00038   0.00053   0.00091   1.93064
    A8        1.92973   0.00010   0.00039   0.00052   0.00091   1.93064
    A9        1.94289  -0.00001   0.00009  -0.00018  -0.00009   1.94280
   A10        1.86631  -0.00008  -0.00039  -0.00027  -0.00066   1.86565
   A11        1.89654  -0.00006  -0.00025  -0.00032  -0.00057   1.89597
   A12        1.89654  -0.00006  -0.00025  -0.00031  -0.00057   1.89597
    D1       -3.14159  -0.00000   0.00000  -0.00001  -0.00001   3.14159
    D2       -0.00000   0.00000  -0.00001   0.00001   0.00000  -0.00000
    D3        0.00000   0.00000   0.00000  -0.00001  -0.00000   0.00000
    D4        3.14159   0.00000  -0.00001   0.00001   0.00001  -3.14159
    D5        2.10987  -0.00001   0.00001  -0.00018  -0.00017   2.10970
    D6       -2.10984   0.00001   0.00000   0.00015   0.00016  -2.10968
    D7        0.00002  -0.00000   0.00000  -0.00001  -0.00001   0.00001
    D8       -1.03173  -0.00001  -0.00000  -0.00016  -0.00016  -1.03189
    D9        1.03175   0.00001  -0.00001   0.00017   0.00017   1.03192
   D10       -3.14158   0.00000  -0.00001   0.00001   0.00000  -3.14158
         Item               Value     Threshold  Converged?
 Maximum Force            0.000273     0.000450     YES
 RMS     Force            0.000086     0.000300     YES
 Maximum Displacement     0.002266     0.001800     NO 
 RMS     Displacement     0.000712     0.001200     YES
 Predicted change in Energy=-7.032929D-07
 GradGradGradGradGradGradGradGradGradGradGradGradGradGradGradGradGradGrad

                          Input orientation:                          
 ---------------------------------------------------------------------
 Center     Atomic      Atomic             Coordinates (Angstroms)
 Number     Number       Type             X           Y           Z
 ---------------------------------------------------------------------
      1         35           0       -1.746977   -1.452630   -0.487506
      2          6           0       -0.666332    0.015220    0.088629
      3          6           0        0.629921   -0.083484    0.368854
      4          1           0       -1.233996    0.933227    0.159200
      5          1           0        1.111407    0.841798    0.685491
      6          6           0        1.490154   -1.305068    0.299372
      7          1           0        2.322213   -1.152152   -0.397950
      8          1           0        1.931435   -1.522721    1.279098
      9          1           0        0.917775   -2.175290   -0.026288
 ---------------------------------------------------------------------
                    Distance matrix (angstroms):
                    1          2          3          4          5
     1  Br   0.000000
     2  C    1.911625   0.000000
     3  C    2.873597   1.329864   0.000000
     4  H    2.524617   1.081646   2.133505   0.000000
     5  H    3.848465   2.049349   1.090062   2.405465   0.000000
     6  C    3.334661   2.537322   1.495693   3.528542   2.213949
     7  H    4.081252   3.245137   2.143337   4.160029   2.572106
     8  H    4.081240   3.245131   2.143336   4.160025   2.572113
     9  H    2.799261   2.705723   2.148174   3.785156   3.105953
                    6          7          8          9
     6  C    0.000000
     7  H    1.096342   0.000000
     8  H    1.096342   1.761397   0.000000
     9  H    1.091310   1.776905   1.776904   0.000000
 Stoichiometry    C3H5Br
 Framework group  C1[X(C3H5Br)]
 Deg. of freedom    21
 Full point group                 C1      NOp   1
 Largest Abelian subgroup         C1      NOp   1
 Largest concise Abelian subgroup C1      NOp   1
                         Standard orientation:                         
 ---------------------------------------------------------------------
 Center     Atomic      Atomic             Coordinates (Angstroms)
 Number     Number       Type             X           Y           Z
 ---------------------------------------------------------------------
      1         35           0        1.039178   -0.145140    0.000000
      2          6           0       -0.469031    1.029432   -0.000001
      3          6           0       -1.732336    0.613983   -0.000000
      4          1           0       -0.172578    2.069660    0.000001
      5          1           0       -2.483955    1.403479    0.000003
      6          6           0       -2.231347   -0.796012    0.000000
      7          1           0       -2.856574   -0.984254    0.880694
      8          1           0       -2.856558   -0.984258   -0.880704
      9          1           0       -1.405274   -1.509148    0.000008
 ---------------------------------------------------------------------
 Rotational constants (GHZ):          13.1413500           2.4411869           2.0853081
 Standard basis: 6-31G(d,p) (6D, 7F)
 There are   100 symmetry adapted cartesian basis functions of A   symmetry.
 There are   100 symmetry adapted basis functions of A   symmetry.
   100 basis functions,   202 primitive gaussians,   100 cartesian basis functions
    29 alpha electrons       29 beta electrons
       nuclear repulsion energy       222.1247697668 Hartrees.
 NAtoms=    9 NActive=    9 NUniq=    9 SFac= 1.00D+00 NAtFMM=   60 NAOKFM=F Big=F
 Integral buffers will be    131072 words long.
 Raffenetti 2 integral format.
 Two-electron integral symmetry is turned on.
 Nuclear repulsion after empirical dispersion term =      222.1126760043 Hartrees.
 One-electron integrals computed using PRISM.
 NBasis=   100 RedAO= T EigKep=  7.50D-04  NBF=   100
 NBsUse=   100 1.00D-06 EigRej= -1.00D+00 NBFU=   100
 Initial guess from the checkpoint file:  "3_1.chk"
 B after Tr=     0.000000   -0.000000    0.000000
         Rot=    1.000000   -0.000000   -0.000000    0.000040 Ang=  -0.00 deg.
 Keep R1 ints in memory in canonical form, NReq=60807049.
 Requested convergence on RMS density matrix=1.00D-08 within 128 cycles.
 Requested convergence on MAX density matrix=1.00D-06.
 Requested convergence on             energy=1.00D-06.
 No special actions if energy rises.
 SCF Done:  E(RB3LYP) =  -2689.03347632     A.U. after    7 cycles
            NFock=  7  Conv=0.43D-08     -V/T= 2.0063
 Calling FoFJK, ICntrl=      2127 FMM=F ISym2X=0 I1Cent= 0 IOpClX= 0 NMat=1 NMatS=1 NMatT=0.
 ***** Axes restored to original set *****
 -------------------------------------------------------------------
 Center     Atomic                   Forces (Hartrees/Bohr)
 Number     Number              X              Y              Z
 -------------------------------------------------------------------
      1       35          -0.000022984    0.000029091    0.000001148
      2        6           0.000025868   -0.000041378   -0.000003317
      3        6          -0.000018974    0.000072744    0.000011442
      4        1           0.000035179    0.000033394    0.000015661
      5        1           0.000029843   -0.000032800   -0.000000166
      6        6           0.000011727   -0.000017574   -0.000000947
      7        1          -0.000017857   -0.000016768   -0.000017833
      8        1          -0.000021935   -0.000020768    0.000000251
      9        1          -0.000020867   -0.000005941   -0.000006239
 -------------------------------------------------------------------
 Cartesian Forces:  Max     0.000072744 RMS     0.000025020

 GradGradGradGradGradGradGradGradGradGradGradGradGradGradGradGradGradGrad
 Berny optimization.
 Using GEDIIS/GDIIS optimizer.
 FormGI is forming the generalized inverse of G from B-inverse, IUseBI=4.
 Internal  Forces:  Max     0.000035780 RMS     0.000013337
 Search for a local minimum.
 Step number   5 out of a maximum of   40
 All quantities printed in internal units (Hartrees-Bohrs-Radians)
 Mixed Optimization -- En-DIIS/RFO-DIIS
 Swapping is turned off.
 Update second derivatives using D2CorX and points    1    2    3    4    5
 DE= -6.91D-07 DEPred=-7.03D-07 R= 9.83D-01
 Trust test= 9.83D-01 RLast= 3.41D-03 DXMaxT set to 4.90D-01
 ITU=  0  1  1  1  0
     Eigenvalues ---    0.00536   0.01435   0.02818   0.02818   0.07043
     Eigenvalues ---    0.07103   0.10405   0.15716   0.15994   0.16000
     Eigenvalues ---    0.16202   0.18407   0.21994   0.26376   0.30441
     Eigenvalues ---    0.34724   0.34799   0.35031   0.35784   0.35849
     Eigenvalues ---    0.63105
 En-DIIS/RFO-DIIS/Sim-DIIS IScMMF=       -3 using points:     5    4    3
 RFO step:  Lambda=-2.08013863D-08.
 DidBck=F Rises=F RFO-DIIS coefs:    0.96678    0.04804   -0.01482
 Iteration  1 RMS(Cart)=  0.00007731 RMS(Int)=  0.00000001
 Iteration  2 RMS(Cart)=  0.00000000 RMS(Int)=  0.00000001
 Variable       Old X    -DE/DX   Delta X   Delta X   Delta X     New X
                                 (Linear)    (Quad)   (Total)
    R1        3.61245   0.00001   0.00006  -0.00004   0.00002   3.61246
    R2        2.51308  -0.00002  -0.00002  -0.00002  -0.00004   2.51304
    R3        2.04402   0.00000  -0.00000   0.00001   0.00001   2.04402
    R4        2.05992  -0.00002   0.00001  -0.00006  -0.00005   2.05987
    R5        2.82645  -0.00000  -0.00002   0.00002   0.00000   2.82645
    R6        2.07179   0.00000  -0.00000   0.00001   0.00000   2.07179
    R7        2.07179   0.00000  -0.00000   0.00001   0.00000   2.07179
    R8        2.06228   0.00000   0.00001  -0.00001   0.00000   2.06228
    A1        2.16220   0.00003  -0.00003   0.00015   0.00012   2.16233
    A2        1.95484   0.00000   0.00003   0.00003   0.00006   1.95490
    A3        2.16614  -0.00004  -0.00001  -0.00018  -0.00018   2.16596
    A4        2.01390   0.00003   0.00001   0.00015   0.00017   2.01407
    A5        2.22867  -0.00002  -0.00004  -0.00007  -0.00010   2.22857
    A6        2.04061  -0.00001   0.00003  -0.00009  -0.00006   2.04055
    A7        1.93064  -0.00001  -0.00001  -0.00003  -0.00004   1.93060
    A8        1.93064  -0.00001  -0.00001  -0.00003  -0.00004   1.93060
    A9        1.94280   0.00000   0.00001  -0.00003  -0.00002   1.94278
   A10        1.86565   0.00002   0.00000   0.00015   0.00015   1.86581
   A11        1.89597   0.00000   0.00001  -0.00003  -0.00003   1.89594
   A12        1.89597   0.00000   0.00001  -0.00003  -0.00003   1.89594
    D1        3.14159   0.00000   0.00000   0.00001   0.00001  -3.14159
    D2       -0.00000   0.00000  -0.00000   0.00000   0.00000   0.00000
    D3        0.00000  -0.00000   0.00000  -0.00000  -0.00000   0.00000
    D4       -3.14159  -0.00000  -0.00000  -0.00000  -0.00000   3.14159
    D5        2.10970  -0.00001   0.00001  -0.00008  -0.00007   2.10963
    D6       -2.10968   0.00001  -0.00001   0.00008   0.00007  -2.10961
    D7        0.00001   0.00000   0.00000   0.00000   0.00000   0.00001
    D8       -1.03189  -0.00001   0.00001  -0.00008  -0.00008  -1.03197
    D9        1.03192   0.00001  -0.00001   0.00007   0.00007   1.03198
   D10       -3.14158   0.00000  -0.00000  -0.00000  -0.00000  -3.14159
         Item               Value     Threshold  Converged?
 Maximum Force            0.000036     0.000450     YES
 RMS     Force            0.000013     0.000300     YES
 Maximum Displacement     0.000188     0.001800     YES
 RMS     Displacement     0.000077     0.001200     YES
 Predicted change in Energy=-1.304431D-08
 Optimization completed.
    -- Stationary point found.
                           ----------------------------
                           !   Optimized Parameters   !
                           ! (Angstroms and Degrees)  !
 --------------------------                            --------------------------
 ! Name  Definition              Value          Derivative Info.                !
 --------------------------------------------------------------------------------
 ! R1    R(1,2)                  1.9116         -DE/DX =    0.0                 !
 ! R2    R(2,3)                  1.3299         -DE/DX =    0.0                 !
 ! R3    R(2,4)                  1.0816         -DE/DX =    0.0                 !
 ! R4    R(3,5)                  1.0901         -DE/DX =    0.0                 !
 ! R5    R(3,6)                  1.4957         -DE/DX =    0.0                 !
 ! R6    R(6,7)                  1.0963         -DE/DX =    0.0                 !
 ! R7    R(6,8)                  1.0963         -DE/DX =    0.0                 !
 ! R8    R(6,9)                  1.0913         -DE/DX =    0.0                 !
 ! A1    A(1,2,3)              123.8851         -DE/DX =    0.0                 !
 ! A2    A(1,2,4)              112.004          -DE/DX =    0.0                 !
 ! A3    A(3,2,4)              124.1108         -DE/DX =    0.0                 !
 ! A4    A(2,3,5)              115.3882         -DE/DX =    0.0                 !
 ! A5    A(2,3,6)              127.6933         -DE/DX =    0.0                 !
 ! A6    A(5,3,6)              116.9186         -DE/DX =    0.0                 !
 ! A7    A(3,6,7)              110.6175         -DE/DX =    0.0                 !
 ! A8    A(3,6,8)              110.6174         -DE/DX =    0.0                 !
 ! A9    A(3,6,9)              111.3142         -DE/DX =    0.0                 !
 ! A10   A(7,6,8)              106.8941         -DE/DX =    0.0                 !
 ! A11   A(7,6,9)              108.6311         -DE/DX =    0.0                 !
 ! A12   A(8,6,9)              108.631          -DE/DX =    0.0                 !
 ! D1    D(1,2,3,5)           -180.0002         -DE/DX =    0.0                 !
 ! D2    D(1,2,3,6)             -0.0001         -DE/DX =    0.0                 !
 ! D3    D(4,2,3,5)              0.0            -DE/DX =    0.0                 !
 ! D4    D(4,2,3,6)            180.0001         -DE/DX =    0.0                 !
 ! D5    D(2,3,6,7)            120.8769         -DE/DX =    0.0                 !
 ! D6    D(2,3,6,8)           -120.8757         -DE/DX =    0.0                 !
 ! D7    D(2,3,6,9)              0.0005         -DE/DX =    0.0                 !
 ! D8    D(5,3,6,7)            -59.123          -DE/DX =    0.0                 !
 ! D9    D(5,3,6,8)             59.1244         -DE/DX =    0.0                 !
 ! D10   D(5,3,6,9)           -179.9994         -DE/DX =    0.0                 !
 --------------------------------------------------------------------------------
 GradGradGradGradGradGradGradGradGradGradGradGradGradGradGradGradGradGrad

                          Input orientation:                          
 ---------------------------------------------------------------------
 Center     Atomic      Atomic             Coordinates (Angstroms)
 Number     Number       Type             X           Y           Z
 ---------------------------------------------------------------------
      1         35           0       -1.746977   -1.452630   -0.487506
      2          6           0       -0.666332    0.015220    0.088629
      3          6           0        0.629921   -0.083484    0.368854
      4          1           0       -1.233996    0.933227    0.159200
      5          1           0        1.111407    0.841798    0.685491
      6          6           0        1.490154   -1.305068    0.299372
      7          1           0        2.322213   -1.152152   -0.397950
      8          1           0        1.931435   -1.522721    1.279098
      9          1           0        0.917775   -2.175290   -0.026288
 ---------------------------------------------------------------------
                    Distance matrix (angstroms):
                    1          2          3          4          5
     1  Br   0.000000
     2  C    1.911625   0.000000
     3  C    2.873597   1.329864   0.000000
     4  H    2.524617   1.081646   2.133505   0.000000
     5  H    3.848465   2.049349   1.090062   2.405465   0.000000
     6  C    3.334661   2.537322   1.495693   3.528542   2.213949
     7  H    4.081252   3.245137   2.143337   4.160029   2.572106
     8  H    4.081240   3.245131   2.143336   4.160025   2.572113
     9  H    2.799261   2.705723   2.148174   3.785156   3.105953
                    6          7          8          9
     6  C    0.000000
     7  H    1.096342   0.000000
     8  H    1.096342   1.761397   0.000000
     9  H    1.091310   1.776905   1.776904   0.000000
 Stoichiometry    C3H5Br
 Framework group  C1[X(C3H5Br)]
 Deg. of freedom    21
 Full point group                 C1      NOp   1
 Largest Abelian subgroup         C1      NOp   1
 Largest concise Abelian subgroup C1      NOp   1
                         Standard orientation:                         
 ---------------------------------------------------------------------
 Center     Atomic      Atomic             Coordinates (Angstroms)
 Number     Number       Type             X           Y           Z
 ---------------------------------------------------------------------
      1         35           0        1.039178   -0.145140    0.000000
      2          6           0       -0.469031    1.029432   -0.000001
      3          6           0       -1.732336    0.613983   -0.000000
      4          1           0       -0.172578    2.069660    0.000001
      5          1           0       -2.483955    1.403479    0.000003
      6          6           0       -2.231347   -0.796012    0.000000
      7          1           0       -2.856574   -0.984254    0.880694
      8          1           0       -2.856558   -0.984258   -0.880704
      9          1           0       -1.405274   -1.509148    0.000008
 ---------------------------------------------------------------------
 Rotational constants (GHZ):          13.1413500           2.4411869           2.0853081

 **********************************************************************

            Population analysis using the SCF Density.

 **********************************************************************

 Orbital symmetries:
       Occupied  (A) (A) (A) (A) (A) (A) (A) (A) (A) (A) (A) (A)
                 (A) (A) (A) (A) (A) (A) (A) (A) (A) (A) (A) (A)
                 (A) (A) (A) (A) (A)
       Virtual   (A) (A) (A) (A) (A) (A) (A) (A) (A) (A) (A) (A)
                 (A) (A) (A) (A) (A) (A) (A) (A) (A) (A) (A) (A)
                 (A) (A) (A) (A) (A) (A) (A) (A) (A) (A) (A) (A)
                 (A) (A) (A) (A) (A) (A) (A) (A) (A) (A) (A) (A)
                 (A) (A) (A) (A) (A) (A) (A) (A) (A) (A) (A) (A)
                 (A) (A) (A) (A) (A) (A) (A) (A) (A) (A) (A)
 The electronic state is 1-A.
 Alpha  occ. eigenvalues -- -482.90483 -61.86721 -56.38794 -56.38425 -56.38420
 Alpha  occ. eigenvalues --  -10.23633 -10.20663 -10.19000  -8.57893  -6.53256
 Alpha  occ. eigenvalues --   -6.52034  -6.51991  -2.64835  -2.64487  -2.64455
 Alpha  occ. eigenvalues --   -2.63482  -2.63481  -0.82571  -0.75756  -0.68389
 Alpha  occ. eigenvalues --   -0.54724  -0.48956  -0.42130  -0.42051  -0.38686
 Alpha  occ. eigenvalues --   -0.35425  -0.32528  -0.28041  -0.24325
 Alpha virt. eigenvalues --    0.00783   0.01972   0.10101   0.13058   0.16392
 Alpha virt. eigenvalues --    0.16800   0.17634   0.26409   0.28205   0.33840
 Alpha virt. eigenvalues --    0.43152   0.46240   0.46534   0.47279   0.47856
 Alpha virt. eigenvalues --    0.49386   0.51783   0.55356   0.59384   0.59614
 Alpha virt. eigenvalues --    0.61817   0.65886   0.68503   0.75129   0.78666
 Alpha virt. eigenvalues --    0.83549   0.84829   0.85234   0.87738   0.88980
 Alpha virt. eigenvalues --    0.91018   0.95752   1.10788   1.25491   1.30608
 Alpha virt. eigenvalues --    1.36882   1.37931   1.56323   1.62730   1.66359
 Alpha virt. eigenvalues --    1.79531   1.80428   1.89298   1.96121   2.03600
 Alpha virt. eigenvalues --    2.06199   2.07097   2.12843   2.20839   2.24640
 Alpha virt. eigenvalues --    2.35511   2.37053   2.41661   2.51436   2.58751
 Alpha virt. eigenvalues --    2.62201   2.65049   2.75748   2.86378   2.88248
 Alpha virt. eigenvalues --    3.00679   3.20112   3.27721   3.41817   3.44869
 Alpha virt. eigenvalues --    3.52226   4.13535   4.36323   4.55364   8.61735
 Alpha virt. eigenvalues --   72.91617
          Condensed to atoms (all electrons):
               1          2          3          4          5          6
     1  Br  34.955720   0.279172  -0.063467  -0.052502   0.004751  -0.016684
     2  C    0.279172   4.897547   0.647228   0.378192  -0.035978  -0.047036
     3  C   -0.063467   0.647228   4.824565  -0.036808   0.372281   0.390110
     4  H   -0.052502   0.378192  -0.036808   0.578639  -0.007208   0.004690
     5  H    0.004751  -0.035978   0.372281  -0.007208   0.608319  -0.048952
     6  C   -0.016684  -0.047036   0.390110   0.004690  -0.048952   4.930049
     7  H    0.000648   0.000852  -0.031861  -0.000134  -0.001422   0.377776
     8  H    0.000648   0.000852  -0.031861  -0.000134  -0.001422   0.377776
     9  H    0.014672  -0.011053  -0.033081   0.000200   0.004539   0.388128
               7          8          9
     1  Br   0.000648   0.000648   0.014672
     2  C    0.000852   0.000852  -0.011053
     3  C   -0.031861  -0.031861  -0.033081
     4  H   -0.000134  -0.000134   0.000200
     5  H   -0.001422  -0.001422   0.004539
     6  C    0.377776   0.377776   0.388128
     7  H    0.590302  -0.033429  -0.027172
     8  H   -0.033429   0.590302  -0.027172
     9  H   -0.027172  -0.027172   0.554276
 Mulliken charges:
               1
     1  Br  -0.122957
     2  C   -0.109777
     3  C   -0.037106
     4  H    0.135065
     5  H    0.105091
     6  C   -0.355858
     7  H    0.124440
     8  H    0.124440
     9  H    0.136662
 Sum of Mulliken charges =  -0.00000
 Mulliken charges with hydrogens summed into heavy atoms:
               1
     1  Br  -0.122957
     2  C    0.025287
     3  C    0.067985
     6  C    0.029684
 Electronic spatial extent (au):  <R**2>=            567.5276
 Charge=              0.0000 electrons
 Dipole moment (field-independent basis, Debye):
    X=             -1.6469    Y=              0.5297    Z=              0.0000  Tot=              1.7300
 Quadrupole moment (field-independent basis, Debye-Ang):
   XX=            -33.9119   YY=            -34.3957   ZZ=            -38.5877
   XY=             -0.5961   XZ=             -0.0000   YZ=              0.0000
 Traceless Quadrupole moment (field-independent basis, Debye-Ang):
   XX=              1.7198   YY=              1.2361   ZZ=             -2.9559
   XY=             -0.5961   XZ=             -0.0000   YZ=              0.0000
 Octapole moment (field-independent basis, Debye-Ang**2):
  XXX=             25.2086  YYY=              0.1240  ZZZ=             -0.0000  XYY=             10.0929
  XXY=             -3.3724  XXZ=              0.0000  XZZ=             10.5939  YZZ=             -2.9773
  YYZ=              0.0000  XYZ=             -0.0000
 Hexadecapole moment (field-independent basis, Debye-Ang**3):
 XXXX=           -485.8348 YYYY=           -138.4346 ZZZZ=            -48.2430 XXXY=            -11.5321
 XXXZ=             -0.0001 YYYX=             -8.3732 YYYZ=              0.0000 ZZZX=              0.0000
 ZZZY=              0.0000 XXYY=           -105.4082 XXZZ=            -92.3292 YYZZ=            -34.5302
 XXYZ=              0.0000 YYXZ=             -0.0000 ZZXY=              0.9178
 N-N= 2.221126760043D+02 E-N=-6.849217586867D+03  KE= 2.672157032823D+03
 1\1\GINC-NOTCH207\FOpt\RB3LYP\6-31G(d,p)\C3H5Br1\U6029223\13-Feb-2021\
 0\\# B3LYP/6-31G(d,p) empiricaldispersion=GD3BJ int=(grid=fine) opt fr
 eq=noraman\\3_1.xyz\\0,1\Br,-1.7469769689,-1.4526300464,-0.4875058067\
 C,-0.6663316006,0.0152204466,0.0886291466\C,0.629920965,-0.0834837802,
 0.3688539196\H,-1.2339963803,0.9332267194,0.1592000518\H,1.1114073328,
 0.8417981373,0.6854910147\C,1.4901536646,-1.3050683006,0.2993721993\H,
 2.322213034,-1.1521516287,-0.397950139\H,1.9314349982,-1.5227213094,1.
 2790981055\H,0.9177749552,-2.1752902379,-0.0262884918\\Version=ES64L-G
 16RevB.01\State=1-A\HF=-2689.0334763\RMSD=4.318e-09\RMSF=2.502e-05\Dip
 ole=0.5470373,0.3494504,0.2046771\Quadrupole=0.8480511,0.9976405,-1.84
 56916,0.2971426,0.7753246,0.7752626\PG=C01 [X(C3H5Br1)]\\@


 THE PROBLEM WITH THE LADDER OF SUCCESS IS YOU CAN'T
 CLIMB IT WHILE YOU'RE TWIDDLING YOUR THUMBS.
 Job cpu time:       0 days  0 hours  9 minutes 11.7 seconds.
 Elapsed time:       0 days  0 hours  0 minutes 11.9 seconds.
 File lengths (MBytes):  RWF=     10 Int=      0 D2E=      0 Chk=      2 Scr=      1
 Normal termination of Gaussian 16 at Sat Feb 13 12:21:11 2021.
 Link1:  Proceeding to internal job step number  2.
 ----------------------------------------------------------------------
 #N Geom=AllCheck Guess=TCheck SCRF=Check GenChk RB3LYP/6-31G(d,p) Freq
 ----------------------------------------------------------------------
 1/10=4,29=7,30=1,38=1,40=1/1,3;
 2/12=2,40=1/2;
 3/5=1,6=6,7=101,11=2,14=-4,25=1,30=1,70=2,71=2,74=-5,75=-4,116=1,124=41,140=1/1,2,3;
 4/5=101/1;
 5/5=2,38=6,98=1/2;
 8/6=4,10=90,11=11/1;
 11/6=1,8=1,9=11,15=111,16=1/1,2,10;
 10/6=1/2;
 6/7=2,8=2,9=2,10=2,28=1/1;
 7/8=1,10=1,25=1/1,2,3,16;
 1/10=4,30=1/3;
 99//99;
 Structure from the checkpoint file:  "3_1.chk"
 -------
 3_1.xyz
 -------
 Charge =  0 Multiplicity = 1
 Redundant internal coordinates found in file.  (old form).
 Br,0,-1.7469769689,-1.4526300464,-0.4875058067
 C,0,-0.6663316006,0.0152204466,0.0886291466
 C,0,0.629920965,-0.0834837802,0.3688539196
 H,0,-1.2339963803,0.9332267194,0.1592000518
 H,0,1.1114073328,0.8417981373,0.6854910147
 C,0,1.4901536646,-1.3050683006,0.2993721993
 H,0,2.322213034,-1.1521516287,-0.397950139
 H,0,1.9314349982,-1.5227213094,1.2790981055
 H,0,0.9177749552,-2.1752902379,-0.0262884918
 Recover connectivity data from disk.

 GradGradGradGradGradGradGradGradGradGradGradGradGradGradGradGradGradGrad
 Berny optimization.
 Initialization pass.
                           ----------------------------
                           !    Initial Parameters    !
                           ! (Angstroms and Degrees)  !
 --------------------------                            --------------------------
 ! Name  Definition              Value          Derivative Info.                !
[...]

 Orbital symmetries:
       Occupied  (A) (A) (A) (A) (A) (A) (A) (A) (A) (A) (A) (A)
                 (A) (A) (A) (A) (A) (A) (A) (A) (A) (A) (A) (A)
                 (A) (A) (A) (A) (A)
       Virtual   (A) (A) (A) (A) (A) (A) (A) (A) (A) (A) (A) (A)
                 (A) (A) (A) (A) (A) (A) (A) (A) (A) (A) (A) (A)
                 (A) (A) (A) (A) (A) (A) (A) (A) (A) (A) (A) (A)
                 (A) (A) (A) (A) (A) (A) (A) (A) (A) (A) (A) (A)
                 (A) (A) (A) (A) (A) (A) (A) (A) (A) (A) (A) (A)
                 (A) (A) (A) (A) (A) (A) (A) (A) (A) (A) (A) (A)
                 (A) (A) (A) (A) (A) (A) (A) (A) (A) (A) (A) (A)
                 (A) (A) (A) (A) (A) (A) (A) (A) (A) (A) (A) (A)
                 (A) (A) (A) (A) (A) (A) (A) (A) (A) (A) (A) (A)
                 (A) (A) (A) (A) (A) (A) (A) (A) (A) (A) (A) (A)
                 (A) (A) (A) (A) (A) (A) (A) (A) (A) (A) (A) (A)
                 (A) (A) (A) (A) (A) (A) (A) (A) (A) (A)
 The electronic state is 1-A.
 Alpha  occ. eigenvalues -- -483.19002 -62.80269 -56.51403 -56.51023 -56.51006
 Alpha  occ. eigenvalues --  -10.28590 -10.25944 -10.24331  -8.84591  -6.62647
 Alpha  occ. eigenvalues --   -6.61403  -6.61347  -2.68408  -2.68056  -2.68016
 Alpha  occ. eigenvalues --   -2.67009  -2.67009  -0.84342  -0.77846  -0.69955
 Alpha  occ. eigenvalues --   -0.55994  -0.50356  -0.43686  -0.43589  -0.40067
 Alpha  occ. eigenvalues --   -0.36539  -0.34407  -0.29904  -0.26249
 Alpha virt. eigenvalues --   -0.00152   0.01301   0.04123   0.06537   0.09179
 Alpha virt. eigenvalues --    0.10069   0.11660   0.14388   0.19091   0.20277
 Alpha virt. eigenvalues --    0.20779   0.22544   0.23083   0.24321   0.25138
 Alpha virt. eigenvalues --    0.27464   0.28940   0.30144   0.30650   0.31287
 Alpha virt. eigenvalues --    0.36205   0.37479   0.38463   0.38533   0.40145
 Alpha virt. eigenvalues --    0.40947   0.43118   0.43275   0.44445   0.51708
 Alpha virt. eigenvalues --    0.53883   0.56921   0.59865   0.64228   0.64838
 Alpha virt. eigenvalues --    0.66001   0.76833   0.85897   0.87782   0.91008
 Alpha virt. eigenvalues --    0.92795   0.94353   0.96841   1.01128   1.02726
 Alpha virt. eigenvalues --    1.04701   1.12752   1.16743   1.18382   1.25906
 Alpha virt. eigenvalues --    1.32534   1.34117   1.34531   1.38315   1.42980
 Alpha virt. eigenvalues --    1.43003   1.45226   1.47029   1.47822   1.50107
 Alpha virt. eigenvalues --    1.51129   1.51998   1.52670   1.55157   1.56174
 Alpha virt. eigenvalues --    1.58495   1.60438   1.64073   1.64682   1.65733
 Alpha virt. eigenvalues --    1.69674   1.71669   1.76735   1.80299   1.82545
 Alpha virt. eigenvalues --    1.84113   1.88096   1.92986   2.02441   2.05756
 Alpha virt. eigenvalues --    2.10034   2.17342   2.21865   2.25863   2.30033
 Alpha virt. eigenvalues --    2.36126   2.37306   2.40323   2.48211   2.51159
 Alpha virt. eigenvalues --    2.53664   2.56389   2.56744   2.62795   2.69242
 Alpha virt. eigenvalues --    2.76761   2.78727   2.81585   2.87353   2.90472
 Alpha virt. eigenvalues --    2.91995   3.00810   3.02968   3.04739   3.06458
 Alpha virt. eigenvalues --    3.08262   3.11998   3.12663   3.17800   3.23533
 Alpha virt. eigenvalues --    3.24625   3.25523   3.31223   3.37927   3.45798
 Alpha virt. eigenvalues --    3.46547   3.57244   3.62515   3.66920   3.68849
 Alpha virt. eigenvalues --    3.74134   3.84855   3.91211   3.91383   4.03846
 Alpha virt. eigenvalues --    4.08277   4.12962   4.15622   4.23088   4.25209
 Alpha virt. eigenvalues --    4.25272   4.35271   4.41950   4.49142   4.54745
 Alpha virt. eigenvalues --    4.60060   4.75758   5.00134   7.64892  21.98400
 Alpha virt. eigenvalues --   22.28235  22.69375
          Condensed to atoms (all electrons):
               1          2          3          4          5          6
     1  Br  34.927388   0.254488  -0.021316  -0.062959   0.008328  -0.031607
     2  C    0.254488   4.898784   0.611212   0.422561  -0.050835  -0.027209
     3  C   -0.021316   0.611212   5.148926  -0.059297   0.399632   0.194275
     4  H   -0.062959   0.422561  -0.059297   0.561756  -0.006387   0.008836
     5  H    0.008328  -0.050835   0.399632  -0.006387   0.570719  -0.031372
     6  C   -0.031607  -0.027209   0.194275   0.008836  -0.031372   4.870033
     7  H    0.001550  -0.002795  -0.038007  -0.000255  -0.002447   0.398829
     8  H    0.001550  -0.002795  -0.038006  -0.000255  -0.002447   0.398828
     9  H    0.012638   0.003650  -0.067907   0.000536   0.004067   0.434199
               7          8          9
     1  Br   0.001550   0.001550   0.012638
     2  C   -0.002795  -0.002795   0.003650
     3  C   -0.038007  -0.038006  -0.067907
     4  H   -0.000255  -0.000255   0.000536
     5  H   -0.002447  -0.002447   0.004067
     6  C    0.398829   0.398828   0.434199
     7  H    0.605118  -0.035828  -0.024963
     8  H   -0.035828   0.605118  -0.024964
     9  H   -0.024963  -0.024964   0.565103
 Mulliken charges:
               1
     1  Br  -0.090060
     2  C   -0.107061
     3  C   -0.129512
     4  H    0.135464
     5  H    0.110742
     6  C   -0.214811
     7  H    0.098799
     8  H    0.098799
     9  H    0.097640
 Sum of Mulliken charges =   0.00000
 Mulliken charges with hydrogens summed into heavy atoms:
               1
     1  Br  -0.090060
     2  C    0.028403
     3  C   -0.018770
     6  C    0.080427
 Electronic spatial extent (au):  <R**2>=            568.7305
 Charge=              0.0000 electrons
 Dipole moment (field-independent basis, Debye):
    X=             -1.6422    Y=              0.4449    Z=              0.0000  Tot=              1.7014
 Quadrupole moment (field-independent basis, Debye-Ang):
   XX=            -34.3132   YY=            -35.0775   ZZ=            -39.1226
   XY=             -0.5080   XZ=             -0.0000   YZ=              0.0000
 Traceless Quadrupole moment (field-independent basis, Debye-Ang):
   XX=              1.8579   YY=              1.0936   ZZ=             -2.9515
   XY=             -0.5080   XZ=             -0.0000   YZ=              0.0000
 Octapole moment (field-independent basis, Debye-Ang**2):
  XXX=             25.4538  YYY=             -0.0142  ZZZ=             -0.0000  XYY=             10.5012
  XXY=             -3.4433  XXZ=              0.0000  XZZ=             10.7310  YZZ=             -3.2227
  YYZ=              0.0000  XYZ=             -0.0000
 Hexadecapole moment (field-independent basis, Debye-Ang**3):
 XXXX=           -494.9093 YYYY=           -143.2765 ZZZZ=            -52.3911 XXXY=            -12.2026
 XXXZ=             -0.0001 YYYX=             -8.2015 YYYZ=              0.0000 ZZZX=              0.0000
 ZZZY=              0.0000 XXYY=           -107.8469 XXZZ=            -94.1678 YYZZ=            -36.3525
 XXYZ=              0.0000 YYXZ=             -0.0000 ZZXY=              1.3852
 N-N= 2.221247697668D+02 E-N=-6.869225497878D+03  KE= 2.687810031609D+03
  Exact polarizability:  79.196  -0.558  52.678   0.000   0.000  39.508
 Approx polarizability: 111.477  -4.092  76.437   0.000   0.000  58.471

 **********************************************************************

            Electrostatic Properties Using The SCF Density.

 **********************************************************************

       Atomic Center    1 is at   1.039178 -0.145140  0.000000
       Atomic Center    2 is at  -0.469031  1.029432 -0.000001
       Atomic Center    3 is at  -1.732336  0.613983 -0.000000
       Atomic Center    4 is at  -0.172578  2.069660  0.000001
       Atomic Center    5 is at  -2.483955  1.403479  0.000003
       Atomic Center    6 is at  -2.231347 -0.796012  0.000000
       Atomic Center    7 is at  -2.856574 -0.984254  0.880694
       Atomic Center    8 is at  -2.856558 -0.984258 -0.880704
       Atomic Center    9 is at  -1.405274 -1.509148  0.000008
 -----------------------------------------------------------------

              Electrostatic Properties (Atomic Units)

 -----------------------------------------------------------------
    Center     Electric         -------- Electric Field --------
               Potential          X             Y             Z
 -----------------------------------------------------------------
    1 Atom   -175.830935      0.024758     -0.017738      0.000000
    2 Atom    -14.722112     -0.017831     -0.001018      0.000000
    3 Atom    -14.748298      0.010717     -0.003184      0.000000
    4 Atom     -1.088330      0.005562      0.021306     -0.000000
    5 Atom     -1.097481     -0.013665      0.014522     -0.000000
    6 Atom    -14.758399      0.002671      0.002545     -0.000000
    7 Atom     -1.109268     -0.009987     -0.003033      0.014235
    8 Atom     -1.109268     -0.009987     -0.003033     -0.014235
    9 Atom     -1.116054      0.013315     -0.013176      0.000000
 -----------------------------------------------------------------
 -----------------------------------------------------
    Center         ---- Electric Field Gradient ----
                     XX            YY            ZZ
 -----------------------------------------------------
    1 Atom    ************  ************  ************
    2 Atom     -511.351151   -511.380256   -511.415045
    3 Atom     -510.937556   -511.028126   -511.451670
    4 Atom       -1.737749     -2.126041     -1.679612
    5 Atom       -1.917509     -1.938114     -1.690584
    6 Atom     -510.303180   -510.395608   -510.342600
    7 Atom       -1.833684     -1.708425     -1.975942
    8 Atom       -1.833676     -1.708425     -1.975948
    9 Atom       -1.957057     -1.898033     -1.697656
 -----------------------------------------------------
 -----------------------------------------------------
    Center         ---- Electric Field Gradient ----
                     XY            XZ            YZ
 -----------------------------------------------------
    1 Atom        5.399543      0.000002     -0.000002
    2 Atom        0.343723     -0.000000     -0.000000
    3 Atom        0.040900     -0.000000      0.000000
    4 Atom       -0.123471     -0.000000     -0.000001
    5 Atom        0.223898      0.000001     -0.000001
    6 Atom       -0.043482      0.000000     -0.000000
    7 Atom       -0.043971      0.205085      0.059114
    8 Atom       -0.043971     -0.205082     -0.059116
    9 Atom        0.217942     -0.000003      0.000002
 -----------------------------------------------------
 -----------------------------------------------------
    Center         ---- Electric Field Gradient ----
                   ----       Eigenvalues       ----
 -----------------------------------------------------
    1 Atom    ************  ************  ************
    2 Atom     -511.709734   -511.415045   -511.021672
    3 Atom     -511.451670   -511.043862   -510.921820
    4 Atom       -2.161977     -1.701813     -1.679612
    5 Atom       -2.151946     -1.703676     -1.690584
    6 Atom     -510.412849   -510.342600   -510.285940
    7 Atom       -2.134612     -1.695979     -1.687459
    8 Atom       -2.134612     -1.695978     -1.687459
    9 Atom       -2.147476     -1.707614     -1.697656
 -----------------------------------------------------
 -----------------------------------------------------
    Center         ---- Electric Field Gradient ----
                       ( tensor representation )
                   3XX-RR        3YY-RR        3ZZ-RR
 -----------------------------------------------------
    1 Atom       -3.218221     -0.151223      3.369444
    2 Atom        0.030999      0.001895     -0.032895
    3 Atom        0.201561      0.110991     -0.312552
    4 Atom        0.110052     -0.278240      0.168188
    5 Atom       -0.068774     -0.089378      0.158152
    6 Atom        0.043949     -0.048479      0.004530
    7 Atom        0.005666      0.130925     -0.136592
    8 Atom        0.005674      0.130925     -0.136598
    9 Atom       -0.106142     -0.047118      0.153260
 -----------------------------------------------------
 -----------------------------------------------------
    Center         ---- Electric Field Gradient ----
                       ( tensor representation )
                   ----       Eigenvalues       ----
 -----------------------------------------------------
    1 Atom       -7.297803      3.369444      3.928359
    2 Atom       -0.327584     -0.032895      0.360478
    3 Atom       -0.312552      0.095255      0.217297
    4 Atom       -0.314176      0.145988      0.168188
    5 Atom       -0.303211      0.145059      0.158152
    6 Atom       -0.065719      0.004530      0.061189
    7 Atom       -0.295262      0.143371      0.151891
    8 Atom       -0.295262      0.143371      0.151891
    9 Atom       -0.296560      0.143301      0.153260
 -----------------------------------------------------

 ----------------------------------------------------------------------

 Electric dipole moment (input orientation):
 (Debye = 10**-18 statcoulomb cm , SI units = C m)
                  (au)            (Debye)         (10**-30 SI)
   Tot        0.669392D+00      0.170142D+01      0.567534D+01
   x          0.554642D+00      0.140976D+01      0.470245D+01
   y          0.317355D+00      0.806637D+00      0.269065D+01
   z          0.199357D+00      0.506716D+00      0.169022D+01

 Dipole polarizability, Alpha (input orientation).
 (esu units = cm**3 , SI units = C**2 m**2 J**-1)
 Alpha(0;0):
               (au)            (10**-24 esu)      (10**-40 SI)
   iso        0.571272D+02      0.846538D+01      0.941900D+01
   aniso      0.350266D+02      0.519041D+01      0.577511D+01
   xx         0.748800D+02      0.110961D+02      0.123460D+02
   yx         0.564098D+01      0.835908D+00      0.930073D+00
   yy         0.537951D+02      0.797161D+01      0.886961D+01
   zx         0.948843D+01      0.140604D+01      0.156443D+01
   zy         0.447133D+01      0.662583D+00      0.737224D+00
   zz         0.427065D+02      0.632845D+01      0.704135D+01

 First dipole hyperpolarizability, Beta (input orientation).
 ||, _|_  parallel and perpendicular components, (z) with respect to z axis,
 vector components x,y,z.  Values do not include the 1/n! factor of 1/2.
 (esu units = statvolt**-1 cm**4 , SI units = C**3 m**3 J**-2)
 Beta(0;0,0):
               (au)            (10**-30 esu)      (10**-50 SI)
   || (z)     0.194646D+02      0.168159D+00      0.624105D-01
   _|_(z)     0.648819D+01      0.560529D-01      0.208035D-01
   x          0.264952D+03      0.228898D+01      0.849532D+00
   y          0.161056D+03      0.139140D+01      0.516405D+00
   z          0.973229D+02      0.840794D+00      0.312052D+00
   ||         0.649955D+02      0.561511D+00      0.208399D+00
   xxx        0.592699D+02      0.512046D+00      0.190041D+00
   xxy        0.190908D+02      0.164930D+00      0.612120D-01
   yxy        0.672717D+01      0.581175D-01      0.215697D-01
   yyy        0.310573D+02      0.268311D+00      0.995809D-01
   xxz        0.789935D+01      0.682442D-01      0.253282D-01
   yxz        0.394289D+00      0.340635D-02      0.126423D-02
   yyz        0.703082D+01      0.607408D-01      0.225434D-01
   zxz        0.223203D+02      0.192830D+00      0.715668D-01
   zyz        0.353733D+01      0.305598D-01      0.113420D-01
   zzz        0.175108D+02      0.151280D+00      0.561459D-01

 ----------------------------------------------------------------------

 Dipole orientation:
    35          0.03927056         -0.83365880         -4.31117583
     6         -0.74056307          0.32550743         -0.97981357
     6          0.03088183         -0.82120272          1.11911392
     1         -1.88140792          2.02131442         -1.00648485
     1         -0.56559001          0.06542295          2.88018739
     6          1.60406930         -3.15965474          1.33251693
     1          3.34905121         -2.77191568          2.37989011
     1          0.58729852         -4.62987767          2.37985465
     1          2.10227601         -3.90017885         -0.52662376

 Electric dipole moment (dipole orientation):
 (Debye = 10**-18 statcoulomb cm , SI units = C m)
                  (au)            (Debye)         (10**-30 SI)
   Tot        0.669392D+00      0.170142D+01      0.567534D+01
   x          0.000000D+00      0.000000D+00      0.000000D+00
   y          0.000000D+00      0.000000D+00      0.000000D+00
   z          0.669392D+00      0.170142D+01      0.567534D+01

 Dipole polarizability, Alpha (dipole orientation).
 (esu units = cm**3 , SI units = C**2 m**2 J**-1)
 Alpha(0;0):
               (au)            (10**-24 esu)      (10**-40 SI)
   iso        0.571272D+02      0.846538D+01      0.941900D+01
   aniso      0.350266D+02      0.519041D+01      0.577511D+01
   xx         0.440883D+02      0.653322D+01      0.726918D+01
   yx        -0.680895D+01     -0.100898D+01     -0.112264D+01
   yy         0.496288D+02      0.735422D+01      0.818268D+01
   zx         0.346719D+01      0.513785D+00      0.571662D+00
   zy        -0.515386D+01     -0.763724D+00     -0.849757D+00
   zz         0.776645D+02      0.115087D+02      0.128051D+02

 First dipole hyperpolarizability, Beta (dipole orientation).
 ||, _|_  parallel and perpendicular components, (z) with respect to z axis,
 vector components x,y,z.  Values do not include the 1/n! factor of 1/2.
 (esu units = statvolt**-1 cm**4 , SI units = C**3 m**3 J**-2)
 Beta(0;0,0):
               (au)            (10**-30 esu)      (10**-50 SI)
   || (z)     0.649747D+02      0.561331D+00      0.208332D+00
   _|_(z)     0.216582D+02      0.187110D+00      0.694441D-01
   x         -0.459390D+01     -0.396877D-01     -0.147297D-01
   y          0.682735D+01      0.589830D-01      0.218910D-01
   z          0.324873D+03      0.280665D+01      0.104166D+01
   ||         0.649955D+02      0.561511D+00      0.208399D+00
   xxx        0.616577D+01      0.532675D-01      0.197697D-01
   xxy        0.422291D+01      0.364827D-01      0.135402D-01
   yxy       -0.117246D+02     -0.101291D+00     -0.375932D-01
   yyy        0.403916D+01      0.348952D-01      0.129510D-01
   xxz        0.193726D+02      0.167365D+00      0.621157D-01
   yxz        0.275660D+01      0.238149D-01      0.883866D-02
   yyz        0.171297D+02      0.147987D+00      0.549240D-01
   zxz        0.402749D+01      0.347943D-01      0.129136D-01
   zyz       -0.598629D+01     -0.517169D-01     -0.191942D-01
   zzz        0.717888D+02      0.620199D+00      0.230181D+00

 ----------------------------------------------------------------------
 1\1\GINC-NOTCH207\SP\RM06\def2TZVP\C3H5Br1\U6029223\13-Feb-2021\0\\# M
 06/def2TZVP int=(grid=ultrafine) polar prop=(efg) guess=read geom=chec
 k\\3_1.xyz\\0,1\Br,0,-1.7469769689,-1.4526300464,-0.4875058067\C,0,-0.
 6663316006,0.0152204466,0.0886291466\C,0,0.629920965,-0.0834837802,0.3
 688539196\H,0,-1.2339963803,0.9332267194,0.1592000518\H,0,1.1114073328
 ,0.8417981373,0.6854910147\C,0,1.4901536646,-1.3050683006,0.2993721993
 \H,0,2.322213034,-1.1521516287,-0.397950139\H,0,1.9314349982,-1.522721
 3094,1.2790981055\H,0,0.9177749552,-2.1752902379,-0.0262884918\\Versio
 n=ES64L-G16RevB.01\State=1-A\HF=-2691.316976\RMSD=2.417e-09\Dipole=0.5
 546421,0.3173555,0.1993572\Polar=74.8799895,5.6409844,53.7950844,9.488
 4289,4.471335,42.7064815\HyperPolar=59.2699463,19.0908109,6.7271655,31
 .0573049,7.899349,0.394289,7.0308241,22.3202536,3.5373284,17.5107842\Q
 uadrupole=0.9636994,0.8789037,-1.8426032,0.2940679,0.8008318,0.7475892
 \PG=C01 [X(C3H5Br1)]\\@


 WE DON'T KNOW ONE MILLIONTH OF ONE PERCENT ABOUT
 ANYTHING.
                                     T. A. EDISON.
 Job cpu time:       0 days  0 hours 11 minutes 29.6 seconds.
 Elapsed time:       0 days  0 hours  0 minutes 13.7 seconds.
 File lengths (MBytes):  RWF=     19 Int=      0 D2E=      0 Chk=      4 Scr=      1
 Normal termination of Gaussian 16 at Sat Feb 13 12:21:52 2021.
